
 Primary working directories    : /tmp/320938.767.gen4.q
 Secondary working directories  : /tmp/320938.767.gen4.q
 Wavefunction directory         : /home/vulcan/mel64643/wfu/
 Main file repository           : /tmp/320938.767.gen4.q/

 ARCHNAME  : Linux/x86_64
 FC        : /opt/intel/compilers_and_libraries_2016.1.150/linux/bin/intel64/ifort
 FCVERSION : 16.0.1
 BLASLIB   : -mkl
 id        : ccgc

 Nodes     nprocs
 n055         3
 Number of processes for MPI-2 version of Molpro:   nprocs(total)=    4   nprocs(compute)=    3   nprocs(helper)=    1
 ga_uses_ma=false, calling ma_init with nominal heap.
 GA-space will be limited to   8.0 MW (determined by -G option)

 Using customized tuning parameters: mindgm=10; mindgv=16; mindgc=4; mindgr=1; noblas=0; mincuda=1000; minvec=7
 default implementation of scratch files=sf  

 ***,Frequencies for min3
 memory,1000,m
 gthresh,energy=1.0d-10,orbital=1.0d-10,oneint=1.0d-16,twoint=1.0d-16,optgrad=1.0d-6,compress=1.0d-13
 geomtyp=xyz
 
  geometry = {
  12
  arbitrary comment
     C    1.776964391707    0.711398808326   -0.047331391796
     C    0.491811976407   -0.059992870174   -0.196493901896
     C    0.450332819107   -1.535686371559    0.101422525407
     O   -0.560709196156    0.727013369647    0.254451252461
     O   -1.837863380598    0.092211025541   -0.120533574513
     H    2.585365778098    0.210835949029   -0.611439536817
     H    1.660616467391    1.742377875733   -0.426536431189
     H    2.095187470144    0.773486336485    1.017649645796
     H   -0.505161964435   -1.983006414564   -0.220078357175
     H    1.281595103072   -2.047666002343   -0.417150960834
     H    0.561526666588   -1.719532566142    1.194749704545
     H   -1.988009391925    0.550794802976   -0.966999428923
  }
 
 basis=cc-pvdz
 {rhf;maxit,200}
 {uccsd(t);maxit,200}

 Variables initialized (661), CPU time= 0.00 sec
 Commands  initialized (458), CPU time= 0.00 sec, 486 directives.
 Default parameters read. Elapsed time= 0.05 sec

 Checking input...
 Passed
1


                                         ***  PROGRAM SYSTEM MOLPRO  ***
                         Copyright, University College Cardiff Consultants Limited, 2008

                                    Version 2010.1 linked May 16 2016 07:17:05


 **********************************************************************************************************************************
 LABEL *   Frequencies for min3                                                          
 Linux-4.4.3/n055(x86_64) 64 bit mpp version                                             DATE: 07-Mar-20          TIME: 05:29:35  
 **********************************************************************************************************************************

 SHA1:             9e8077add272b0f3cad6f7df79ec5211205f459d
 **********************************************************************************************************************************

 THRESHOLDS:

 ZERO    =  1.00D-12  ONEINT  =  1.00D-16  TWOINT  =  1.00D-16  PREFAC  =  1.00D-14  LOCALI  =  1.00D-09  EORDER  =  1.00D-04
 ENERGY  =  1.00D-10  ETEST   =  0.00D+00  EDENS   =  0.00D+00  THRDEDEF=  1.00D-06  GRADIENT=  1.00D-02  STEP    =  1.00D-03
 ORBITAL =  1.00D-10  CIVEC   =  1.00D-05  COEFF   =  1.00D-04  PRINTCI =  5.00D-02  PUNCHCI =  9.90D+01  OPTGRAD =  1.00D-06
 OPTENERG=  1.00D-06  OPTSTEP =  3.00D-04  THRGRAD =  1.00D-10  COMPRESS=  1.00D-13  VARMIN  =  1.00D-07  VARMAX  =  1.00D-03
 THRDOUB =  0.00D+00  THRDIV  =  1.00D-05  THRRED  =  1.00D-07  THRPSP  =  1.00D+00  THRDC   =  1.00D-10  THRCS   =  1.00D-10
 THRNRM  =  1.00D-08  THREQ   =  0.00D+00  THRDE   =  1.00D+00  THRREF  =  1.00D-05  SPARFAC =  1.00D+00  THRDLP  =  1.00D-07
 THRDIA  =  1.00D-10  THRDLS  =  1.00D-07  THRGPS  =  0.00D+00  THRKEX  =  0.00D+00  THRDIS  =  2.00D-01  THRVAR  =  1.00D-10
 THRLOC  =  1.00D-06  THRGAP  =  1.00D-06  THRLOCT = -1.00D+00  THRGAPT = -1.00D+00  THRORB  =  1.00D-06  THRMLTP =  0.00D+00
 THRCPQCI=  1.00D-10  KEXTA   =  0.00D+00  THRCOARS=  0.00D+00  SYMTOL  =  1.00D-06  GRADTOL =  1.00D-06  THROVL  =  1.00D-08
 THRORTH =  1.00D-08  GRID    =  1.00D-06  GRIDMAX =  1.00D-03  DTMAX   =  0.00D+00

 SETTING GEOMTYP        =    XYZ

 Variable memory set to 1000000000 words,  buffer space   230000 words

 SETTING BASIS          =    CC-PVDZ


 Recomputing integrals since basis changed


 Using spherical harmonics

 Library entry C      S cc-pVDZ              selected for orbital group  1
 Library entry C      P cc-pVDZ              selected for orbital group  1
 Library entry C      D cc-pVDZ              selected for orbital group  1
 Library entry O      S cc-pVDZ              selected for orbital group  2
 Library entry O      P cc-pVDZ              selected for orbital group  2
 Library entry O      D cc-pVDZ              selected for orbital group  2
 Library entry H      S cc-pVDZ              selected for orbital group  3
 Library entry H      P cc-pVDZ              selected for orbital group  3

1PROGRAM * SEWARD (Integral evaluation for generally contracted gaussian basis sets)     Author: Roland Lindh, 1990

 Geometry written to block  1 of record 700


 Point group  C1  



 ATOMIC COORDINATES

 NR  ATOM    CHARGE       X              Y              Z

   1  C       6.00    3.357976046    1.344348918   -0.089443368
   2  C       6.00    0.929389944   -0.113370094   -0.371319661
   3  C       6.00    0.851005696   -2.902026666    0.191660797
   4  O       8.00   -1.059586820    1.373856163    0.480843181
   5  O       8.00   -3.473058456    0.174253585   -0.227775445
   6  H       1.00    4.885633270    0.398422202   -1.155453271
   7  H       1.00    3.138110333    3.292617003   -0.806037040
   8  H       1.00    3.959330513    1.461677342    1.923079128
   9  H       1.00   -0.954617765   -3.747339040   -0.415887823
  10  H       1.00    2.421863756   -3.869527953   -0.788301071
  11  H       1.00    1.061131615   -3.249445624    2.257749737
  12  H       1.00   -3.756793297    1.040851332   -1.827364090

 Bond lengths in Bohr (Angstrom)

 1-2  2.846476668  1-6  2.089232170  1-7  2.087485557  1-8  2.103720502  2-3  2.845996585
     ( 1.506290578)     ( 1.105574049)     ( 1.104649781)     ( 1.113240944)     ( 1.506036529)

  2- 4  2.625652684   3- 9  2.084213141   3-10  2.089013894   3-11  2.105605933   4- 5  2.786760133
       ( 1.389435559)       ( 1.102918093)       ( 1.105458542)       ( 1.114238671)       ( 1.474689950)

  5-12  1.841244402
       ( 0.974344574)

 Bond angles

  1-2-3  120.37817739   1-2-4  108.91074243   2-1-6  109.96608659   2-1-7  110.73849253

  2- 1- 8  111.54192125   2- 3- 9  111.32173486   2- 3-10  109.89519720   2- 3-11  110.67255478

  2- 4- 5  109.25026927   3- 2- 4  118.03070442   4- 5-12   98.72910083   6- 1- 7  108.93083126

  6- 1- 8  107.71936908   7- 1- 8  107.84569417   9- 3-10  109.07872831   9- 3-11  107.79213945

 10- 3-11  107.98942098

 NUCLEAR CHARGE:                   41
 NUMBER OF PRIMITIVE AOS:         184
 NUMBER OF SYMMETRY AOS:          179
 NUMBER OF CONTRACTIONS:          105   ( 105A   )
 NUMBER OF CORE ORBITALS:           5   (   5A   )
 NUMBER OF VALENCE ORBITALS:       27   (  27A   )


 NUCLEAR REPULSION ENERGY  183.23480941


 Eigenvalues of metric

         1 0.345E-02 0.435E-02 0.105E-01 0.141E-01 0.182E-01 0.214E-01 0.331E-01 0.346E-01


 Contracted 2-electron integrals neglected if value below      1.0D-16
 AO integral compression algorithm  1   Integral accuracy      1.0D-16

     127.402 MB (compressed) written to integral file ( 93.4%)

     Node minimum: 40.370 MB, node maximum: 44.827 MB


 NUMBER OF SORTED TWO-ELECTRON INTEGRALS:    5164320.     BUFFER LENGTH:  32768
 NUMBER OF SEGMENTS:   1  SEGMENT LENGTH:    5164320      RECORD LENGTH: 524288

 Memory used in sort:       5.72 MW

 SORT1 READ    17075251. AND WROTE     5135902. INTEGRALS IN     15 RECORDS. CPU TIME:     0.22 SEC, REAL TIME:     0.25 SEC
 SORT2 READ    15396609. AND WROTE    15487395. INTEGRALS IN    462 RECORDS. CPU TIME:     0.06 SEC, REAL TIME:     0.11 SEC

 Node minimum:     5160610.  Node maximum:     5164320. integrals

 OPERATOR DM      FOR CENTER  0  COORDINATES:    0.000000    0.000000    0.000000


 **********************************************************************************************************************************
 DATASETS  * FILE   NREC   LENGTH (MB)   RECORD NAMES
              1      18        3.17       500      610      700      900      950      970     1000      129      960     1100   
                                          VAR    BASINP    GEOM    SYMINP    ZMAT    AOBASIS   BASIS     P2S    ABASIS      S 
                                         1400     1410     1200     1210     1080     1600     1650     1700   
                                           T        V       H0       H01     AOSYM     SMH    MOLCAS    OPER   

 PROGRAMS   *        TOTAL       INT
 CPU TIMES  *         0.93      0.89
 REAL TIME  *         1.36 SEC
 DISK USED  *       306.22 MB      
 GA USED    *         0.00 MB       (max)       0.00 MB       (current)
 **********************************************************************************************************************************

1PROGRAM * RHF-SCF (OPEN SHELL)       Authors: W. Meyer, H.-J. Werner


 NUMBER OF ELECTRONS:      21+   20-    SPACE SYMMETRY=1    SPIN SYMMETRY: Doublet 
 CONVERGENCE THRESHOLDS:    1.00E-10 (Density)    1.00E-11 (Energy)
 MAX. NUMBER OF ITERATIONS:      200
 INTERPOLATION TYPE:            DIIS
 INTERPOLATION STEPS:              2 (START)      1 (STEP)
 LEVEL SHIFTS:                 -0.30 (CLOSED)  0.00 (OPEN) 



 Orbital guess generated from atomic densities. Full valence occupancy:   32

 Molecular orbital dump at record        2100.2

 ITERATION    DDIFF          GRAD             ENERGY        2-EL.EN.            DIPOLE MOMENTS         DIIS
    1      0.000D+00      0.000D+00      -267.17824729    555.845098    0.57037    0.04823   -0.74955    0
    2      0.000D+00      0.617D-02      -267.24891890    555.763334    0.41405   -0.13133   -0.59878    1
    3      0.927D-02      0.214D-02      -267.26109727    555.681745    0.39370   -0.05918   -0.62609    2
    4      0.336D-02      0.912D-03      -267.26470730    555.833909    0.37905   -0.09917   -0.64248    3
    5      0.186D-02      0.364D-03      -267.26527711    555.805195    0.38157   -0.09262   -0.63545    4
    6      0.793D-03      0.110D-03      -267.26535370    555.791465    0.37982   -0.09240   -0.63819    5
    7      0.277D-03      0.511D-04      -267.26537386    555.788458    0.37910   -0.09214   -0.63768    6
    8      0.144D-03      0.273D-04      -267.26537992    555.786510    0.37936   -0.09225   -0.63789    7
    9      0.924D-04      0.115D-04      -267.26538084    555.786830    0.37955   -0.09221   -0.63765    8
   10      0.366D-04      0.501D-05      -267.26538100    555.787439    0.37981   -0.09222   -0.63772    9
   11      0.147D-04      0.197D-05      -267.26538103    555.787280    0.37986   -0.09222   -0.63772    9
   12      0.651D-05      0.671D-06      -267.26538103    555.787415    0.37988   -0.09222   -0.63772    9
   13      0.227D-05      0.226D-06      -267.26538103    555.787330    0.37988   -0.09222   -0.63772    9
   14      0.632D-06      0.758D-07      -267.26538103    555.787339    0.37988   -0.09222   -0.63772    9
   15      0.193D-06      0.301D-07      -267.26538103    555.787335    0.37988   -0.09222   -0.63772    9
   16      0.826D-07      0.145D-07      -267.26538103    555.787337    0.37988   -0.09222   -0.63772    9
   17      0.375D-07      0.751D-08      -267.26538103    555.787337    0.37988   -0.09222   -0.63772    9
   18      0.223D-07      0.342D-08      -267.26538103    555.787337    0.37988   -0.09222   -0.63772    9
   19      0.114D-07      0.133D-08      -267.26538103    555.787337    0.37988   -0.09222   -0.63772    9
   20      0.444D-08      0.567D-09      -267.26538103    555.787337    0.37988   -0.09222   -0.63772    9
   21      0.166D-08      0.287D-09      -267.26538103    555.787337    0.37988   -0.09222   -0.63772    9
   22      0.754D-09      0.162D-09      -267.26538103    555.787337    0.37988   -0.09222   -0.63772    9
   23      0.446D-09      0.796D-10      -267.26538103    555.787337    0.37988   -0.09222   -0.63772    9
   24      0.264D-09      0.317D-10      -267.26538103    555.787337    0.37988   -0.09222   -0.63772    9
   25      0.933D-10      0.129D-10      -267.26538103    555.787337    0.37988   -0.09222   -0.63772    0

 Final alpha occupancy:  21
 Final beta  occupancy:  20

 !RHF STATE 1.1 Energy               -267.265381028772
 Nuclear energy                       183.23480941
 One-electron energy                 -728.39385890
 Two-electron energy                  277.89366846
 Virial quotient                       -1.00155389
 !RHF STATE 1.1 Dipole moment           0.37988193    -0.09221961    -0.63771551
 Dipole moment /Debye                   0.96550031    -0.23438352    -1.62080498

 Orbital energies:

         1.1          2.1          3.1          4.1          5.1          6.1          7.1          8.1          9.1         10.1
    -20.630473   -20.628825   -11.279235   -11.237864   -11.232219    -1.470205    -1.240794    -1.023265    -0.945340    -0.768486

        11.1         12.1         13.1         14.1         15.1         16.1         17.1         18.1         19.1         20.1
     -0.704618    -0.643057    -0.626794    -0.588854    -0.545023    -0.543383    -0.538922    -0.516921    -0.493034    -0.469809

        21.1         22.1         23.1
     -0.352278     0.181279     0.183529


 **********************************************************************************************************************************
 DATASETS  * FILE   NREC   LENGTH (MB)   RECORD NAMES
              1      18        3.17       500      610      700      900      950      970     1000      129      960     1100   
                                          VAR    BASINP    GEOM    SYMINP    ZMAT    AOBASIS   BASIS     P2S    ABASIS      S 
                                         1400     1410     1200     1210     1080     1600     1650     1700   
                                           T        V       H0       H01     AOSYM     SMH    MOLCAS    OPER   

              2       3        0.77       700     1000     2100   
                                         GEOM     BASIS     RHF  

 PROGRAMS   *        TOTAL       RHF       INT
 CPU TIMES  *         2.03      1.10      0.89
 REAL TIME  *         2.60 SEC
 DISK USED  *       322.79 MB      
 SF USED    *         0.04 MB      
 GA USED    *         0.00 MB       (max)       0.00 MB       (current)
 **********************************************************************************************************************************


1PROGRAM * CCSD (Unrestricted open-shell coupled cluster)     Authors: C. Hampel, H.-J. Werner, 1991, M. Deegan, P.J. Knowles, 1992


 Convergence thresholds:  THRVAR = 1.00D-08  THRDEN = 1.00D-10

 CCSD(T)     terms to be evaluated (factor= 1.000)


 Number of core orbitals:           5 (   5 )
 Number of closed-shell orbitals:  15 (  15 )
 Number of active  orbitals:        1 (   1 )
 Number of external orbitals:      84 (  84 )

 Memory could be reduced to 24.91 Mwords without degradation in triples

 Number of N-1 electron functions:              31
 Number of N-2 electron functions:             465
 Number of singly external CSFs:              2635
 Number of doubly external CSFs:           2537250
 Total number of CSFs:                     2539885

 Molecular orbitals read from record     2100.2  Type=RHF/CANONICAL (state 1.1)

 Integral transformation finished. Total CPU:   0.91 sec, npass=  1  Memory used:  12.63 MW

 Starting RMP2 calculation

 ITER.      SQ.NORM     CORR.ENERGY   TOTAL ENERGY   ENERGY CHANGE        DEN1      VAR(S)    VAR(P)  DIIS     TIME
   1      1.24303306    -0.78638693  -268.05176796    -0.78638693    -0.00304984  0.20D-04  0.11D-02  1  1     1.25
   2      1.24567461    -0.78967598  -268.05505701    -0.00328905    -0.00000475  0.54D-06  0.19D-05  2  2     1.56
   3      1.24574018    -0.78971806  -268.05509908    -0.00004208    -0.00000003  0.16D-07  0.68D-08  3  3     1.89
   4      1.24574113    -0.78971806  -268.05509909    -0.00000000    -0.00000000  0.27D-09  0.38D-10  4  4     2.25
   5      1.24574122    -0.78971809  -268.05509912    -0.00000003    -0.00000000  0.25D-11  0.65D-12  5  5     2.64
   6      1.24574123    -0.78971810  -268.05509913    -0.00000001    -0.00000000  0.28D-13  0.87D-14  6  6     3.06
   7      1.24574123    -0.78971810  -268.05509913     0.00000000    -0.00000000  0.47D-15  0.12D-15  6  1     3.48
   8      1.24574123    -0.78971810  -268.05509913     0.00000000    -0.00000000  0.60D-17  0.13D-17  6  2     3.89

 Norm of t1 vector:      0.03893498      S-energy:    -0.00227187      T1 diagnostic:  0.00055045
 Norm of t2 vector:      0.49419156      P-energy:    -0.78744623
                                         Alpha-Beta:  -0.59342108
                                         Alpha-Alpha: -0.10094315
                                         Beta-Beta:   -0.09308200

 Spin contamination <S**2-Sz**2-Sz>     0.00104033
  Reference energy                   -267.265381028772
  RHF-RMP2 correlation energy          -0.789718096650
 !RHF-RMP2 energy                    -268.055099125422

 Starting UCCSD calculation

 ITER.      SQ.NORM     CORR.ENERGY   TOTAL ENERGY   ENERGY CHANGE        DEN1      VAR(S)    VAR(P)  DIIS     TIME
   1      1.26280703    -0.80905621  -268.07443724    -0.80905621    -0.02515662  0.38D-02  0.59D-02  1  1     9.29
   2      1.29158408    -0.83646618  -268.10184721    -0.02740997    -0.00201136  0.22D-03  0.66D-03  2  2    14.66
   3      1.30152782    -0.84096506  -268.10634608    -0.00449888    -0.00032471  0.19D-03  0.56D-04  3  3    20.09
   4      1.30644280    -0.84244252  -268.10782354    -0.00147746    -0.00007212  0.43D-04  0.14D-04  4  4    25.53
   5      1.30917422    -0.84283083  -268.10821186    -0.00038831    -0.00002368  0.19D-04  0.32D-05  5  5    31.60
   6      1.31111450    -0.84303540  -268.10841643    -0.00020457    -0.00000646  0.42D-05  0.12D-05  6  6    39.38
   7      1.31206429    -0.84309421  -268.10847524    -0.00005881    -0.00000208  0.14D-05  0.37D-06  6  2    45.94
   8      1.31250606    -0.84313690  -268.10851793    -0.00004269    -0.00000065  0.45D-06  0.11D-06  6  1    52.39
   9      1.31269146    -0.84314149  -268.10852252    -0.00000459    -0.00000022  0.15D-06  0.35D-07  6  4    58.85
  10      1.31275468    -0.84314442  -268.10852545    -0.00000293    -0.00000005  0.35D-07  0.95D-08  6  3    65.22
  11      1.31278421    -0.84314316  -268.10852419     0.00000126    -0.00000002  0.13D-07  0.28D-08  6  5    71.68
  12      1.31279460    -0.84314290  -268.10852393     0.00000026    -0.00000000  0.26D-08  0.95D-09  6  6    78.18
  13      1.31279346    -0.84314199  -268.10852302     0.00000092    -0.00000000  0.96D-09  0.29D-09  6  2    83.91
  14      1.31278825    -0.84314114  -268.10852217     0.00000085    -0.00000000  0.21D-09  0.68D-10  6  1    89.39
  15      1.31278417    -0.84314055  -268.10852158     0.00000059    -0.00000000  0.78D-10  0.19D-10  6  4    94.87
  16      1.31278098    -0.84314017  -268.10852120     0.00000038    -0.00000000  0.28D-10  0.63D-11  6  3   100.36
  17      1.31277878    -0.84313993  -268.10852096     0.00000024    -0.00000000  0.10D-10  0.24D-11  6  5   105.84
  18      1.31277787    -0.84313987  -268.10852090     0.00000006    -0.00000000  0.41D-11  0.87D-12  6  6   111.31
  19      1.31277726    -0.84313984  -268.10852087     0.00000003    -0.00000000  0.16D-11  0.37D-12  6  2   116.77
  20      1.31277695    -0.84313983  -268.10852086     0.00000001    -0.00000000  0.60D-12  0.13D-12  6  1   122.24
  21      1.31277678    -0.84313982  -268.10852084     0.00000001    -0.00000000  0.28D-12  0.58D-13  6  4   127.76
  22      1.31277666    -0.84313981  -268.10852084     0.00000001    -0.00000000  0.74D-13  0.21D-13  6  3   133.27
  23      1.31277660    -0.84313980  -268.10852083     0.00000000    -0.00000000  0.21D-13  0.63D-14  6  5   138.78
  24      1.31277660    -0.84313981  -268.10852083    -0.00000000    -0.00000000  0.67D-14  0.23D-14  6  6   144.62
  25      1.31277660    -0.84313981  -268.10852084    -0.00000000    -0.00000000  0.21D-14  0.52D-15  6  2   150.16
  26      1.31277661    -0.84313981  -268.10852084    -0.00000000    -0.00000000  0.77D-15  0.15D-15  6  1   155.63
  27      1.31277662    -0.84313981  -268.10852084    -0.00000000    -0.00000000  0.20D-15  0.63D-16  6  3   161.14
  28      1.31277662    -0.84313981  -268.10852084    -0.00000000    -0.00000000  0.30D-16  0.11D-16  6  4   166.61
  29      1.31277662    -0.84313981  -268.10852084    -0.00000000    -0.00000000  0.71D-17  0.29D-17  6  5   172.08
  30      1.31277662    -0.84313981  -268.10852084    -0.00000000    -0.00000000  0.15D-17  0.54D-18  6  6   177.56
  31      1.31277663    -0.84313981  -268.10852084    -0.00000000    -0.00000000  0.35D-18  0.10D-18  6  2   183.03

 Norm of t1 vector:      0.13873553      S-energy:    -0.00282161      T1 diagnostic:  0.01617140
                                                                       D1 diagnostic:  0.06282837
 Norm of t2 vector:      0.54178324      P-energy:    -0.84031819
                                         Alpha-Beta:  -0.66486974
                                         Alpha-Alpha: -0.09147542
                                         Beta-Beta:   -0.08397304

 Spin contamination <S**2-Sz**2-Sz>     0.00217280

 Memory could be reduced to 28.85 Mwords without degradation in triples
 

 RESULTS
 =======

  Reference energy                   -267.265381028772
  UCCSD singles energy                 -0.002821614190
  UCCSD pair energy                    -0.840318194428
  UCCSD correlation energy             -0.843139808618
  Triples (T) contribution             -0.024976204647
  Total correlation energy             -0.868116013265
 
  RHF-UCCSD energy                   -268.108520837390
  RHF-UCCSD[T] energy                -268.134832912443
  RHF-UCCSD-T energy                 -268.133075639278
 !RHF-UCCSD(T) energy                -268.133497042036

 Program statistics:

 Available memory in ccsd:               999997692
 Min. memory needed in ccsd:               7337057
 Max. memory used in ccsd:                10523002
 Max. memory used in cckext:              10867977 (31 integral passes)
 Max. memory used in cckint:              12633073 ( 1 integral passes)



 **********************************************************************************************************************************
 DATASETS  * FILE   NREC   LENGTH (MB)   RECORD NAMES
              1      18        3.17       500      610      700      900      950      970     1000      129      960     1100   
                                          VAR    BASINP    GEOM    SYMINP    ZMAT    AOBASIS   BASIS     P2S    ABASIS      S 
                                         1400     1410     1200     1210     1080     1600     1650     1700   
                                           T        V       H0       H01     AOSYM     SMH    MOLCAS    OPER   

              2       3        0.77       700     1000     2100   
                                         GEOM     BASIS     RHF  

 PROGRAMS   *        TOTAL  UCCSD(T)       RHF       INT
 CPU TIMES  *       231.25    229.22      1.10      0.89
 REAL TIME  *       244.83 SEC
 DISK USED  *         1.29 GB      
 SF USED    *       553.73 MB      
 GA USED    *         0.00 MB       (max)       0.00 MB       (current)
 **********************************************************************************************************************************

        UCCSD(T)        RHF-SCF 
   -268.13349704   -267.26538103
 **********************************************************************************************************************************
 Variable memory released
