
 Primary working directories    : /tmp/320938.249.gen6.q
 Secondary working directories  : /tmp/320938.249.gen6.q
 Wavefunction directory         : /home/vulcan/mel64643/wfu/
 Main file repository           : /tmp/320938.249.gen6.q/

 ARCHNAME  : Linux/x86_64
 FC        : /opt/intel/compilers_and_libraries_2016.1.150/linux/bin/intel64/ifort
 FCVERSION : 16.0.1
 BLASLIB   : -mkl
 id        : ccgc

 Nodes     nprocs
 n090         3
 Number of processes for MPI-2 version of Molpro:   nprocs(total)=    4   nprocs(compute)=    3   nprocs(helper)=    1
 ga_uses_ma=false, calling ma_init with nominal heap.
 GA-space will be limited to   8.0 MW (determined by -G option)

 Using customized tuning parameters: mindgm=10; mindgv=16; mindgc=4; mindgr=1; noblas=0; mincuda=1000; minvec=7
 default implementation of scratch files=sf  

 ***,Frequencies for min3
 memory,1000,m
 gthresh,energy=1.0d-10,orbital=1.0d-10,oneint=1.0d-16,twoint=1.0d-16,optgrad=1.0d-6,compress=1.0d-13
 geomtyp=xyz
 
  geometry = {
  12
  arbitrary comment
     C    1.776964391707    0.711398808326   -0.047331391796
     C    0.491811976407   -0.059992870174   -0.196493901896
     C    0.450332819107   -1.536294019674    0.101417522804
     O   -0.560767745493    0.727234937526    0.254453964104
     O   -1.837840335593    0.092269037726   -0.120531795196
     H    2.585373063107    0.211465914126   -0.609253730037
     H    1.660339334268    1.742842534338   -0.427332566110
     H    2.095430339175    0.774065674771    1.016773924567
     H   -0.502799508155   -1.982696503300   -0.219849509733
     H    1.280650588648   -2.047727093653   -0.417815834514
     H    0.561462481349   -1.719027901816    1.194362977616
     H   -1.988772689942    0.551165380216   -0.966702336057
  }
 
 basis=cc-pvdz
 {rhf;maxit,200}
 {uccsd(t);maxit,200}

 Variables initialized (661), CPU time= 0.00 sec
 Commands  initialized (458), CPU time= 0.00 sec, 486 directives.
 Default parameters read. Elapsed time= 0.06 sec

 Checking input...
 Passed
1


                                         ***  PROGRAM SYSTEM MOLPRO  ***
                         Copyright, University College Cardiff Consultants Limited, 2008

                                    Version 2010.1 linked May 16 2016 07:17:05


 **********************************************************************************************************************************
 LABEL *   Frequencies for min3                                                          
 Linux-4.4.3/n090(x86_64) 64 bit mpp version                                             DATE: 07-Mar-20          TIME: 02:24:50  
 **********************************************************************************************************************************

 SHA1:             9e8077add272b0f3cad6f7df79ec5211205f459d
 **********************************************************************************************************************************

 THRESHOLDS:

 ZERO    =  1.00D-12  ONEINT  =  1.00D-16  TWOINT  =  1.00D-16  PREFAC  =  1.00D-14  LOCALI  =  1.00D-09  EORDER  =  1.00D-04
 ENERGY  =  1.00D-10  ETEST   =  0.00D+00  EDENS   =  0.00D+00  THRDEDEF=  1.00D-06  GRADIENT=  1.00D-02  STEP    =  1.00D-03
 ORBITAL =  1.00D-10  CIVEC   =  1.00D-05  COEFF   =  1.00D-04  PRINTCI =  5.00D-02  PUNCHCI =  9.90D+01  OPTGRAD =  1.00D-06
 OPTENERG=  1.00D-06  OPTSTEP =  3.00D-04  THRGRAD =  1.00D-10  COMPRESS=  1.00D-13  VARMIN  =  1.00D-07  VARMAX  =  1.00D-03
 THRDOUB =  0.00D+00  THRDIV  =  1.00D-05  THRRED  =  1.00D-07  THRPSP  =  1.00D+00  THRDC   =  1.00D-10  THRCS   =  1.00D-10
 THRNRM  =  1.00D-08  THREQ   =  0.00D+00  THRDE   =  1.00D+00  THRREF  =  1.00D-05  SPARFAC =  1.00D+00  THRDLP  =  1.00D-07
 THRDIA  =  1.00D-10  THRDLS  =  1.00D-07  THRGPS  =  0.00D+00  THRKEX  =  0.00D+00  THRDIS  =  2.00D-01  THRVAR  =  1.00D-10
 THRLOC  =  1.00D-06  THRGAP  =  1.00D-06  THRLOCT = -1.00D+00  THRGAPT = -1.00D+00  THRORB  =  1.00D-06  THRMLTP =  0.00D+00
 THRCPQCI=  1.00D-10  KEXTA   =  0.00D+00  THRCOARS=  0.00D+00  SYMTOL  =  1.00D-06  GRADTOL =  1.00D-06  THROVL  =  1.00D-08
 THRORTH =  1.00D-08  GRID    =  1.00D-06  GRIDMAX =  1.00D-03  DTMAX   =  0.00D+00

 SETTING GEOMTYP        =    XYZ

 Variable memory set to 1000000000 words,  buffer space   230000 words

 SETTING BASIS          =    CC-PVDZ


 Recomputing integrals since basis changed


 Using spherical harmonics

 Library entry C      S cc-pVDZ              selected for orbital group  1
 Library entry C      P cc-pVDZ              selected for orbital group  1
 Library entry C      D cc-pVDZ              selected for orbital group  1
 Library entry O      S cc-pVDZ              selected for orbital group  2
 Library entry O      P cc-pVDZ              selected for orbital group  2
 Library entry O      D cc-pVDZ              selected for orbital group  2
 Library entry H      S cc-pVDZ              selected for orbital group  3
 Library entry H      P cc-pVDZ              selected for orbital group  3

1PROGRAM * SEWARD (Integral evaluation for generally contracted gaussian basis sets)     Author: Roland Lindh, 1990

 Geometry written to block  1 of record 700


 Point group  C1  



 ATOMIC COORDINATES

 NR  ATOM    CHARGE       X              Y              Z

   1  C       6.00    3.357976046    1.344348918   -0.089443368
   2  C       6.00    0.929389944   -0.113370094   -0.371319661
   3  C       6.00    0.851005696   -2.903174955    0.191651343
   4  O       8.00   -1.059697462    1.374274865    0.480848305
   5  O       8.00   -3.473014908    0.174363212   -0.227772083
   6  H       1.00    4.885647037    0.399612664   -1.151322694
   7  H       1.00    3.137586627    3.293495080   -0.807541517
   8  H       1.00    3.959789469    1.462772133    1.921424255
   9  H       1.00   -0.950153369   -3.746753393   -0.415455364
  10  H       1.00    2.420078883   -3.869643399   -0.789557501
  11  H       1.00    1.061010323   -3.248491947    2.257018929
  12  H       1.00   -3.758235722    1.041551622   -1.826802666

 Bond lengths in Bohr (Angstrom)

 1-2  2.846476668  1-6  2.086598416  1-7  2.088877021  1-8  2.102330148  2-3  2.847119878
     ( 1.506290578)     ( 1.104180326)     ( 1.105386112)     ( 1.112505200)     ( 1.506630951)

  2- 4  2.625975338   3- 9  2.079513673   3-10  2.087779374   3-11  2.104540100   4- 5  2.786760112
       ( 1.389606300)       ( 1.100431241)       ( 1.104805262)       ( 1.113674657)       ( 1.474689938)

  5-12  1.841267350
       ( 0.974356718)

 Bond angles

  1-2-3  120.37866573   1-2-4  108.90555081   2-1-6  110.02247457   2-1-7  110.71975664

  2- 1- 8  111.57998328   2- 3- 9  111.32227148   2- 3-10  109.87545800   2- 3-11  110.61487250

  2- 4- 5  109.23946113   3- 2- 4  118.03986083   4- 5-12   98.75354233   6- 1- 7  108.95191967

  6- 1- 8  107.61908712   7- 1- 8  107.84585239   9- 3-10  109.02351207   9- 3-11  107.84121758

 10- 3-11  108.07601335

 NUCLEAR CHARGE:                   41
 NUMBER OF PRIMITIVE AOS:         184
 NUMBER OF SYMMETRY AOS:          179
 NUMBER OF CONTRACTIONS:          105   ( 105A   )
 NUMBER OF CORE ORBITALS:           5   (   5A   )
 NUMBER OF VALENCE ORBITALS:       27   (  27A   )


 NUCLEAR REPULSION ENERGY  183.23652397


 Eigenvalues of metric

         1 0.345E-02 0.435E-02 0.105E-01 0.141E-01 0.182E-01 0.214E-01 0.331E-01 0.345E-01


 Contracted 2-electron integrals neglected if value below      1.0D-16
 AO integral compression algorithm  1   Integral accuracy      1.0D-16

     127.402 MB (compressed) written to integral file ( 93.4%)

     Node minimum: 34.341 MB, node maximum: 56.623 MB


 NUMBER OF SORTED TWO-ELECTRON INTEGRALS:    5164320.     BUFFER LENGTH:  32768
 NUMBER OF SEGMENTS:   1  SEGMENT LENGTH:    5164320      RECORD LENGTH: 524288

 Memory used in sort:       5.72 MW

 SORT1 READ    17075629. AND WROTE     5135903. INTEGRALS IN     15 RECORDS. CPU TIME:     0.30 SEC, REAL TIME:     0.34 SEC
 SORT2 READ    15396665. AND WROTE    15487395. INTEGRALS IN    648 RECORDS. CPU TIME:     0.08 SEC, REAL TIME:     0.13 SEC

 Node minimum:     5160610.  Node maximum:     5164320. integrals

 OPERATOR DM      FOR CENTER  0  COORDINATES:    0.000000    0.000000    0.000000


 **********************************************************************************************************************************
 DATASETS  * FILE   NREC   LENGTH (MB)   RECORD NAMES
              1      18        3.17       500      610      700      900      950      970     1000      129      960     1100   
                                          VAR    BASINP    GEOM    SYMINP    ZMAT    AOBASIS   BASIS     P2S    ABASIS      S 
                                         1400     1410     1200     1210     1080     1600     1650     1700   
                                           T        V       H0       H01     AOSYM     SMH    MOLCAS    OPER   

 PROGRAMS   *        TOTAL       INT
 CPU TIMES  *         1.12      1.05
 REAL TIME  *         1.52 SEC
 DISK USED  *       318.24 MB      
 GA USED    *         0.00 MB       (max)       0.00 MB       (current)
 **********************************************************************************************************************************

1PROGRAM * RHF-SCF (OPEN SHELL)       Authors: W. Meyer, H.-J. Werner


 NUMBER OF ELECTRONS:      21+   20-    SPACE SYMMETRY=1    SPIN SYMMETRY: Doublet 
 CONVERGENCE THRESHOLDS:    1.00E-10 (Density)    1.00E-11 (Energy)
 MAX. NUMBER OF ITERATIONS:      200
 INTERPOLATION TYPE:            DIIS
 INTERPOLATION STEPS:              2 (START)      1 (STEP)
 LEVEL SHIFTS:                 -0.30 (CLOSED)  0.00 (OPEN) 



 Orbital guess generated from atomic densities. Full valence occupancy:   32

 Molecular orbital dump at record        2100.2

 ITERATION    DDIFF          GRAD             ENERGY        2-EL.EN.            DIPOLE MOMENTS         DIIS
    1      0.000D+00      0.000D+00      -267.17828996    555.845185    0.57008    0.05011   -0.74897    0
    2      0.000D+00      0.617D-02      -267.24901220    555.766020    0.41399   -0.13144   -0.59855    1
    3      0.928D-02      0.214D-02      -267.26119072    555.683824    0.39368   -0.05963   -0.62588    2
    4      0.336D-02      0.912D-03      -267.26479997    555.836198    0.37906   -0.09990   -0.64230    3
    5      0.186D-02      0.364D-03      -267.26536927    555.807588    0.38159   -0.09345   -0.63527    4
    6      0.792D-03      0.110D-03      -267.26544572    555.793824    0.37985   -0.09327   -0.63801    5
    7      0.277D-03      0.511D-04      -267.26546588    555.790826    0.37915   -0.09302   -0.63750    6
    8      0.144D-03      0.273D-04      -267.26547195    555.788878    0.37943   -0.09313   -0.63772    7
    9      0.925D-04      0.115D-04      -267.26547287    555.789192    0.37961   -0.09309   -0.63747    8
   10      0.366D-04      0.501D-05      -267.26547303    555.789805    0.37987   -0.09310   -0.63754    9
   11      0.147D-04      0.196D-05      -267.26547305    555.789646    0.37992   -0.09310   -0.63754    9
   12      0.651D-05      0.671D-06      -267.26547306    555.789781    0.37994   -0.09310   -0.63754    9
   13      0.227D-05      0.227D-06      -267.26547306    555.789696    0.37994   -0.09310   -0.63754    9
   14      0.633D-06      0.759D-07      -267.26547306    555.789705    0.37994   -0.09310   -0.63754    9
   15      0.193D-06      0.301D-07      -267.26547306    555.789701    0.37995   -0.09310   -0.63754    9
   16      0.828D-07      0.146D-07      -267.26547306    555.789702    0.37995   -0.09310   -0.63754    9
   17      0.377D-07      0.756D-08      -267.26547306    555.789702    0.37995   -0.09310   -0.63754    9
   18      0.224D-07      0.343D-08      -267.26547306    555.789703    0.37995   -0.09310   -0.63754    9
   19      0.115D-07      0.133D-08      -267.26547306    555.789703    0.37995   -0.09310   -0.63754    9
   20      0.444D-08      0.569D-09      -267.26547306    555.789703    0.37995   -0.09310   -0.63754    9
   21      0.166D-08      0.288D-09      -267.26547306    555.789703    0.37995   -0.09310   -0.63754    9
   22      0.758D-09      0.162D-09      -267.26547306    555.789703    0.37995   -0.09310   -0.63754    9
   23      0.448D-09      0.798D-10      -267.26547306    555.789703    0.37995   -0.09310   -0.63754    9
   24      0.264D-09      0.318D-10      -267.26547306    555.789703    0.37995   -0.09310   -0.63754    9
   25      0.935D-10      0.129D-10      -267.26547306    555.789703    0.37995   -0.09310   -0.63754    0

 Final alpha occupancy:  21
 Final beta  occupancy:  20

 !RHF STATE 1.1 Energy               -267.265473057883
 Nuclear energy                       183.23652397
 One-electron energy                 -728.39684832
 Two-electron energy                  277.89485130
 Virial quotient                       -1.00153426
 !RHF STATE 1.1 Dipole moment           0.37994634    -0.09310112    -0.63753616
 Dipole moment /Debye                   0.96566402    -0.23662394    -1.62034915

 Orbital energies:

         1.1          2.1          3.1          4.1          5.1          6.1          7.1          8.1          9.1         10.1
    -20.630464   -20.628784   -11.279233   -11.237681   -11.231897    -1.470130    -1.240713    -1.023313    -0.945566    -0.768567

        11.1         12.1         13.1         14.1         15.1         16.1         17.1         18.1         19.1         20.1
     -0.704606    -0.643071    -0.626762    -0.588956    -0.545304    -0.543455    -0.539102    -0.516964    -0.493000    -0.469863

        21.1         22.1         23.1
     -0.352284     0.181331     0.183604


 **********************************************************************************************************************************
 DATASETS  * FILE   NREC   LENGTH (MB)   RECORD NAMES
              1      18        3.17       500      610      700      900      950      970     1000      129      960     1100   
                                          VAR    BASINP    GEOM    SYMINP    ZMAT    AOBASIS   BASIS     P2S    ABASIS      S 
                                         1400     1410     1200     1210     1080     1600     1650     1700   
                                           T        V       H0       H01     AOSYM     SMH    MOLCAS    OPER   

              2       3        0.77       700     1000     2100   
                                         GEOM     BASIS     RHF  

 PROGRAMS   *        TOTAL       RHF       INT
 CPU TIMES  *         2.49      1.37      1.05
 REAL TIME  *         3.04 SEC
 DISK USED  *       334.81 MB      
 SF USED    *         0.04 MB      
 GA USED    *         0.00 MB       (max)       0.00 MB       (current)
 **********************************************************************************************************************************


1PROGRAM * CCSD (Unrestricted open-shell coupled cluster)     Authors: C. Hampel, H.-J. Werner, 1991, M. Deegan, P.J. Knowles, 1992


 Convergence thresholds:  THRVAR = 1.00D-08  THRDEN = 1.00D-10

 CCSD(T)     terms to be evaluated (factor= 1.000)


 Number of core orbitals:           5 (   5 )
 Number of closed-shell orbitals:  15 (  15 )
 Number of active  orbitals:        1 (   1 )
 Number of external orbitals:      84 (  84 )

 Memory could be reduced to 24.91 Mwords without degradation in triples

 Number of N-1 electron functions:              31
 Number of N-2 electron functions:             465
 Number of singly external CSFs:              2635
 Number of doubly external CSFs:           2537250
 Total number of CSFs:                     2539885

 Molecular orbitals read from record     2100.2  Type=RHF/CANONICAL (state 1.1)

 Integral transformation finished. Total CPU:   0.92 sec, npass=  1  Memory used:  12.63 MW

 Starting RMP2 calculation

 ITER.      SQ.NORM     CORR.ENERGY   TOTAL ENERGY   ENERGY CHANGE        DEN1      VAR(S)    VAR(P)  DIIS     TIME
   1      1.24295844    -0.78631099  -268.05178405    -0.78631099    -0.00304831  0.20D-04  0.11D-02  1  1     1.26
   2      1.24559785    -0.78959833  -268.05507139    -0.00328734    -0.00000474  0.54D-06  0.19D-05  2  2     1.53
   3      1.24566333    -0.78964036  -268.05511341    -0.00004203    -0.00000003  0.16D-07  0.68D-08  3  3     1.83
   4      1.24566429    -0.78964036  -268.05511341    -0.00000000    -0.00000000  0.27D-09  0.38D-10  4  4     2.15
   5      1.24566437    -0.78964039  -268.05511345    -0.00000003    -0.00000000  0.25D-11  0.65D-12  5  5     2.49
   6      1.24566438    -0.78964040  -268.05511345    -0.00000001    -0.00000000  0.28D-13  0.86D-14  6  6     2.84
   7      1.24566438    -0.78964040  -268.05511345     0.00000000    -0.00000000  0.47D-15  0.12D-15  6  1     3.21
   8      1.24566438    -0.78964040  -268.05511345     0.00000000    -0.00000000  0.59D-17  0.13D-17  6  2     3.57

 Norm of t1 vector:      0.03892520      S-energy:    -0.00227119      T1 diagnostic:  0.00055003
 Norm of t2 vector:      0.49411457      P-energy:    -0.78736921
                                         Alpha-Beta:  -0.59335754
                                         Alpha-Alpha: -0.10093664
                                         Beta-Beta:   -0.09307502

 Spin contamination <S**2-Sz**2-Sz>     0.00104016
  Reference energy                   -267.265473057882
  RHF-RMP2 correlation energy          -0.789640395578
 !RHF-RMP2 energy                    -268.055113453460

 Starting UCCSD calculation

 ITER.      SQ.NORM     CORR.ENERGY   TOTAL ENERGY   ENERGY CHANGE        DEN1      VAR(S)    VAR(P)  DIIS     TIME
   1      1.26272337    -0.80898663  -268.07445969    -0.80898663    -0.02514719  0.38D-02  0.59D-02  1  1     9.84
   2      1.29147901    -0.83638578  -268.10185884    -0.02739915    -0.00200977  0.22D-03  0.66D-03  2  2    16.09
   3      1.30141182    -0.84088021  -268.10635327    -0.00449443    -0.00032450  0.19D-03  0.56D-04  3  3    22.34
   4      1.30632272    -0.84235645  -268.10782951    -0.00147624    -0.00007208  0.43D-04  0.14D-04  4  4    28.62
   5      1.30905266    -0.84274452  -268.10821758    -0.00038807    -0.00002367  0.19D-04  0.32D-05  5  5    34.54
   6      1.31099190    -0.84294900  -268.10842205    -0.00020447    -0.00000646  0.42D-05  0.12D-05  6  6    39.38
   7      1.31194134    -0.84300779  -268.10848085    -0.00005880    -0.00000208  0.14D-05  0.37D-06  6  2    44.21
   8      1.31238307    -0.84305048  -268.10852354    -0.00004268    -0.00000065  0.45D-06  0.11D-06  6  1    49.23
   9      1.31256839    -0.84305506  -268.10852812    -0.00000458    -0.00000022  0.15D-06  0.35D-07  6  4    55.00
  10      1.31263156    -0.84305799  -268.10853104    -0.00000292    -0.00000005  0.35D-07  0.95D-08  6  3    60.76
  11      1.31266109    -0.84305673  -268.10852979     0.00000126    -0.00000002  0.13D-07  0.28D-08  6  5    66.54
  12      1.31267149    -0.84305647  -268.10852953     0.00000026    -0.00000000  0.26D-08  0.95D-09  6  6    72.31
  13      1.31267034    -0.84305556  -268.10852862     0.00000091    -0.00000000  0.96D-09  0.28D-09  6  2    78.09
  14      1.31266513    -0.84305471  -268.10852777     0.00000084    -0.00000000  0.21D-09  0.67D-10  6  1    83.88
  15      1.31266105    -0.84305413  -268.10852718     0.00000059    -0.00000000  0.78D-10  0.19D-10  6  4    89.66
  16      1.31265786    -0.84305374  -268.10852680     0.00000038    -0.00000000  0.28D-10  0.63D-11  6  3    95.42
  17      1.31265566    -0.84305350  -268.10852656     0.00000024    -0.00000000  0.10D-10  0.24D-11  6  5   101.20
  18      1.31265476    -0.84305344  -268.10852650     0.00000006    -0.00000000  0.41D-11  0.87D-12  6  6   106.98
  19      1.31265415    -0.84305341  -268.10852647     0.00000003    -0.00000000  0.16D-11  0.37D-12  6  2   112.76
  20      1.31265383    -0.84305340  -268.10852646     0.00000001    -0.00000000  0.60D-12  0.13D-12  6  1   118.53
  21      1.31265367    -0.84305339  -268.10852645     0.00000001    -0.00000000  0.28D-12  0.58D-13  6  4   124.30
  22      1.31265355    -0.84305338  -268.10852644     0.00000001    -0.00000000  0.73D-13  0.21D-13  6  3   130.06
  23      1.31265349    -0.84305338  -268.10852643     0.00000000    -0.00000000  0.21D-13  0.62D-14  6  5   135.84
  24      1.31265348    -0.84305338  -268.10852643    -0.00000000    -0.00000000  0.67D-14  0.22D-14  6  6   141.61
  25      1.31265349    -0.84305338  -268.10852644    -0.00000000    -0.00000000  0.21D-14  0.52D-15  6  2   147.37
  26      1.31265349    -0.84305338  -268.10852644    -0.00000000    -0.00000000  0.77D-15  0.15D-15  6  1   153.15
  27      1.31265350    -0.84305338  -268.10852644    -0.00000000    -0.00000000  0.20D-15  0.62D-16  6  3   158.95
  28      1.31265351    -0.84305338  -268.10852644    -0.00000000    -0.00000000  0.30D-16  0.11D-16  6  4   164.72
  29      1.31265351    -0.84305338  -268.10852644    -0.00000000    -0.00000000  0.71D-17  0.29D-17  6  5   170.49
  30      1.31265351    -0.84305338  -268.10852644    -0.00000000    -0.00000000  0.15D-17  0.54D-18  6  6   176.12
  31      1.31265351    -0.84305338  -268.10852644    -0.00000000    -0.00000000  0.35D-18  0.10D-18  6  2   181.89

 Norm of t1 vector:      0.13870041      S-energy:    -0.00282064      T1 diagnostic:  0.01616739
                                                                       D1 diagnostic:  0.06281509
 Norm of t2 vector:      0.54167860      P-energy:    -0.84023274
                                         Alpha-Beta:  -0.66478782
                                         Alpha-Alpha: -0.09147424
                                         Beta-Beta:   -0.08397068

 Spin contamination <S**2-Sz**2-Sz>     0.00217224

 Memory could be reduced to 28.85 Mwords without degradation in triples
 

 RESULTS
 =======

  Reference energy                   -267.265473057882
  UCCSD singles energy                 -0.002820644807
  UCCSD pair energy                    -0.840232735609
  UCCSD correlation energy             -0.843053380416
  Triples (T) contribution             -0.024966968472
  Total correlation energy             -0.868020348887
 
  RHF-UCCSD energy                   -268.108526438298
  RHF-UCCSD[T] energy                -268.134828681500
  RHF-UCCSD-T energy                 -268.133072169766
 !RHF-UCCSD(T) energy                -268.133493406770

 Program statistics:

 Available memory in ccsd:               999997692
 Min. memory needed in ccsd:               7337057
 Max. memory used in ccsd:                10523002
 Max. memory used in cckext:              10867977 (31 integral passes)
 Max. memory used in cckint:              12633073 ( 1 integral passes)



 **********************************************************************************************************************************
 DATASETS  * FILE   NREC   LENGTH (MB)   RECORD NAMES
              1      18        3.17       500      610      700      900      950      970     1000      129      960     1100   
                                          VAR    BASINP    GEOM    SYMINP    ZMAT    AOBASIS   BASIS     P2S    ABASIS      S 
                                         1400     1410     1200     1210     1080     1600     1650     1700   
                                           T        V       H0       H01     AOSYM     SMH    MOLCAS    OPER   

              2       3        0.77       700     1000     2100   
                                         GEOM     BASIS     RHF  

 PROGRAMS   *        TOTAL  UCCSD(T)       RHF       INT
 CPU TIMES  *       224.65    222.16      1.37      1.05
 REAL TIME  *       233.67 SEC
 DISK USED  *         1.30 GB      
 SF USED    *       553.73 MB      
 GA USED    *         0.00 MB       (max)       0.00 MB       (current)
 **********************************************************************************************************************************

        UCCSD(T)        RHF-SCF 
   -268.13349341   -267.26547306
 **********************************************************************************************************************************
 Variable memory released
