
 Primary working directories    : /tmp/320938.819.gen6.q
 Secondary working directories  : /tmp/320938.819.gen6.q
 Wavefunction directory         : /home/vulcan/mel64643/wfu/
 Main file repository           : /tmp/320938.819.gen6.q/

 ARCHNAME  : Linux/x86_64
 FC        : /opt/intel/compilers_and_libraries_2016.1.150/linux/bin/intel64/ifort
 FCVERSION : 16.0.1
 BLASLIB   : -mkl
 id        : ccgc

 Nodes     nprocs
 n085         3
 Number of processes for MPI-2 version of Molpro:   nprocs(total)=    4   nprocs(compute)=    3   nprocs(helper)=    1
 ga_uses_ma=false, calling ma_init with nominal heap.
 GA-space will be limited to   8.0 MW (determined by -G option)

 Using customized tuning parameters: mindgm=10; mindgv=16; mindgc=4; mindgr=1; noblas=0; mincuda=1000; minvec=7
 default implementation of scratch files=sf  

 ***,Frequencies for min3
 memory,1000,m
 gthresh,energy=1.0d-10,orbital=1.0d-10,oneint=1.0d-16,twoint=1.0d-16,optgrad=1.0d-6,compress=1.0d-13
 geomtyp=xyz
 
  geometry = {
  12
  arbitrary comment
     C    1.776964391707    0.711398808326   -0.047331391796
     C    0.491811976407   -0.059992870174   -0.196493901896
     C    0.450332819107   -1.536294019674    0.101417522804
     O   -0.560767745493    0.727234937526    0.254453964104
     O   -1.837840335593    0.092269037726   -0.120531795196
     H    2.585373063107    0.211465914126   -0.611440883996
     H    1.660426393907    1.742887987326   -0.426532369096
     H    2.095123485707    0.774048097326    1.017650404504
     H   -0.507045504909   -1.982847919449   -0.222225488439
     H    1.282441054082   -2.047432650460   -0.416417359044
     H    0.563053528397   -1.718362245391    1.195596818884
     H   -1.987688411841    0.550328821204   -0.966448197083
  }
 
 basis=cc-pvdz
 {rhf;maxit,200}
 {uccsd(t);maxit,200}

 Variables initialized (661), CPU time= 0.00 sec
 Commands  initialized (458), CPU time= 0.00 sec, 486 directives.
 Default parameters read. Elapsed time= 0.04 sec

 Checking input...
 Passed
1


                                         ***  PROGRAM SYSTEM MOLPRO  ***
                         Copyright, University College Cardiff Consultants Limited, 2008

                                    Version 2010.1 linked May 16 2016 07:17:05


 **********************************************************************************************************************************
 LABEL *   Frequencies for min3                                                          
 Linux-4.4.3/n085(x86_64) 64 bit mpp version                                             DATE: 07-Mar-20          TIME: 05:47:35  
 **********************************************************************************************************************************

 SHA1:             9e8077add272b0f3cad6f7df79ec5211205f459d
 **********************************************************************************************************************************

 THRESHOLDS:

 ZERO    =  1.00D-12  ONEINT  =  1.00D-16  TWOINT  =  1.00D-16  PREFAC  =  1.00D-14  LOCALI  =  1.00D-09  EORDER  =  1.00D-04
 ENERGY  =  1.00D-10  ETEST   =  0.00D+00  EDENS   =  0.00D+00  THRDEDEF=  1.00D-06  GRADIENT=  1.00D-02  STEP    =  1.00D-03
 ORBITAL =  1.00D-10  CIVEC   =  1.00D-05  COEFF   =  1.00D-04  PRINTCI =  5.00D-02  PUNCHCI =  9.90D+01  OPTGRAD =  1.00D-06
 OPTENERG=  1.00D-06  OPTSTEP =  3.00D-04  THRGRAD =  1.00D-10  COMPRESS=  1.00D-13  VARMIN  =  1.00D-07  VARMAX  =  1.00D-03
 THRDOUB =  0.00D+00  THRDIV  =  1.00D-05  THRRED  =  1.00D-07  THRPSP  =  1.00D+00  THRDC   =  1.00D-10  THRCS   =  1.00D-10
 THRNRM  =  1.00D-08  THREQ   =  0.00D+00  THRDE   =  1.00D+00  THRREF  =  1.00D-05  SPARFAC =  1.00D+00  THRDLP  =  1.00D-07
 THRDIA  =  1.00D-10  THRDLS  =  1.00D-07  THRGPS  =  0.00D+00  THRKEX  =  0.00D+00  THRDIS  =  2.00D-01  THRVAR  =  1.00D-10
 THRLOC  =  1.00D-06  THRGAP  =  1.00D-06  THRLOCT = -1.00D+00  THRGAPT = -1.00D+00  THRORB  =  1.00D-06  THRMLTP =  0.00D+00
 THRCPQCI=  1.00D-10  KEXTA   =  0.00D+00  THRCOARS=  0.00D+00  SYMTOL  =  1.00D-06  GRADTOL =  1.00D-06  THROVL  =  1.00D-08
 THRORTH =  1.00D-08  GRID    =  1.00D-06  GRIDMAX =  1.00D-03  DTMAX   =  0.00D+00

 SETTING GEOMTYP        =    XYZ

 Variable memory set to 1000000000 words,  buffer space   230000 words

 SETTING BASIS          =    CC-PVDZ


 Recomputing integrals since basis changed


 Using spherical harmonics

 Library entry C      S cc-pVDZ              selected for orbital group  1
 Library entry C      P cc-pVDZ              selected for orbital group  1
 Library entry C      D cc-pVDZ              selected for orbital group  1
 Library entry O      S cc-pVDZ              selected for orbital group  2
 Library entry O      P cc-pVDZ              selected for orbital group  2
 Library entry O      D cc-pVDZ              selected for orbital group  2
 Library entry H      S cc-pVDZ              selected for orbital group  3
 Library entry H      P cc-pVDZ              selected for orbital group  3

1PROGRAM * SEWARD (Integral evaluation for generally contracted gaussian basis sets)     Author: Roland Lindh, 1990

 Geometry written to block  1 of record 700


 Point group  C1  



 ATOMIC COORDINATES

 NR  ATOM    CHARGE       X              Y              Z

   1  C       6.00    3.357976046    1.344348918   -0.089443368
   2  C       6.00    0.929389944   -0.113370094   -0.371319661
   3  C       6.00    0.851005696   -2.903174955    0.191651343
   4  O       8.00   -1.059697462    1.374274865    0.480848305
   5  O       8.00   -3.473014908    0.174363212   -0.227772083
   6  H       1.00    4.885647037    0.399612664   -1.155455816
   7  H       1.00    3.137751146    3.293580974   -0.806029364
   8  H       1.00    3.959209599    1.462738916    1.923080562
   9  H       1.00   -0.958177140   -3.747039528   -0.419945313
  10  H       1.00    2.423462372   -3.869086982   -0.786914765
  11  H       1.00    1.064016966   -3.247234038    2.259350551
  12  H       1.00   -3.756186733    1.039970754   -1.826322413

 Bond lengths in Bohr (Angstrom)

 1-2  2.846476668  1-6  2.088704811  1-7  2.088420481  1-8  2.103746788  2-3  2.847119878
     ( 1.506290578)     ( 1.105294982)     ( 1.105144521)     ( 1.113254854)     ( 1.506630951)

  2- 4  2.625975338   3- 9  2.087893777   3-10  2.088826864   3-11  2.106924410   4- 5  2.786760112
       ( 1.389606300)       ( 1.104865802)       ( 1.105359570)       ( 1.114936379)       ( 1.474689938)

  5-12  1.839789623
       ( 0.973574738)

 Bond angles

  1-2-3  120.37866573   1-2-4  108.90555081   2-1-6  109.98947225   2-1-7  110.73429490

  2- 1- 8  111.55454090   2- 3- 9  111.22115657   2- 3-10  109.86169375   2- 3-11  110.56566800

  2- 4- 5  109.23946113   3- 2- 4  118.03986083   4- 5-12   98.72231887   6- 1- 7  108.91518355

  6- 1- 8  107.73808609   7- 1- 8  107.80970783   9- 3-10  109.15835108   9- 3-11  108.00354160

 10- 3-11  107.94682268

 NUCLEAR CHARGE:                   41
 NUMBER OF PRIMITIVE AOS:         184
 NUMBER OF SYMMETRY AOS:          179
 NUMBER OF CONTRACTIONS:          105   ( 105A   )
 NUMBER OF CORE ORBITALS:           5   (   5A   )
 NUMBER OF VALENCE ORBITALS:       27   (  27A   )


 NUCLEAR REPULSION ENERGY  183.21657614


 Eigenvalues of metric

         1 0.345E-02 0.435E-02 0.105E-01 0.141E-01 0.182E-01 0.214E-01 0.332E-01 0.346E-01


 Contracted 2-electron integrals neglected if value below      1.0D-16
 AO integral compression algorithm  1   Integral accuracy      1.0D-16

     127.664 MB (compressed) written to integral file ( 93.2%)

     Node minimum: 34.603 MB, node maximum: 56.885 MB


 NUMBER OF SORTED TWO-ELECTRON INTEGRALS:    5164320.     BUFFER LENGTH:  32768
 NUMBER OF SEGMENTS:   1  SEGMENT LENGTH:    5164320      RECORD LENGTH: 524288

 Memory used in sort:       5.72 MW

 SORT1 READ    17075332. AND WROTE     5135905. INTEGRALS IN     15 RECORDS. CPU TIME:     0.30 SEC, REAL TIME:     0.34 SEC
 SORT2 READ    15396631. AND WROTE    15487395. INTEGRALS IN    414 RECORDS. CPU TIME:     0.10 SEC, REAL TIME:     0.12 SEC

 Node minimum:     5160610.  Node maximum:     5164320. integrals

 OPERATOR DM      FOR CENTER  0  COORDINATES:    0.000000    0.000000    0.000000


 **********************************************************************************************************************************
 DATASETS  * FILE   NREC   LENGTH (MB)   RECORD NAMES
              1      18        3.17       500      610      700      900      950      970     1000      129      960     1100   
                                          VAR    BASINP    GEOM    SYMINP    ZMAT    AOBASIS   BASIS     P2S    ABASIS      S 
                                         1400     1410     1200     1210     1080     1600     1650     1700   
                                           T        V       H0       H01     AOSYM     SMH    MOLCAS    OPER   

 PROGRAMS   *        TOTAL       INT
 CPU TIMES  *         1.14      1.09
 REAL TIME  *         1.50 SEC
 DISK USED  *       318.28 MB      
 GA USED    *         0.00 MB       (max)       0.00 MB       (current)
 **********************************************************************************************************************************

1PROGRAM * RHF-SCF (OPEN SHELL)       Authors: W. Meyer, H.-J. Werner


 NUMBER OF ELECTRONS:      21+   20-    SPACE SYMMETRY=1    SPIN SYMMETRY: Doublet 
 CONVERGENCE THRESHOLDS:    1.00E-10 (Density)    1.00E-11 (Energy)
 MAX. NUMBER OF ITERATIONS:      200
 INTERPOLATION TYPE:            DIIS
 INTERPOLATION STEPS:              2 (START)      1 (STEP)
 LEVEL SHIFTS:                 -0.30 (CLOSED)  0.00 (OPEN) 



 Orbital guess generated from atomic densities. Full valence occupancy:   32

 Molecular orbital dump at record        2100.2

 ITERATION    DDIFF          GRAD             ENERGY        2-EL.EN.            DIPOLE MOMENTS         DIIS
    1      0.000D+00      0.000D+00      -267.17823184    555.804627    0.57098    0.04858   -0.74892    0
    2      0.000D+00      0.617D-02      -267.24887978    555.727313    0.41498   -0.13112   -0.59857    1
    3      0.927D-02      0.214D-02      -267.26105887    555.645346    0.39471   -0.05905   -0.62595    2
    4      0.336D-02      0.912D-03      -267.26466970    555.797672    0.38011   -0.09909   -0.64241    3
    5      0.186D-02      0.363D-03      -267.26523941    555.769053    0.38264   -0.09257   -0.63540    4
    6      0.792D-03      0.110D-03      -267.26531598    555.755329    0.38088   -0.09236   -0.63815    5
    7      0.277D-03      0.512D-04      -267.26533617    555.752317    0.38016   -0.09210   -0.63765    6
    8      0.144D-03      0.273D-04      -267.26534224    555.750376    0.38042   -0.09221   -0.63786    7
    9      0.925D-04      0.115D-04      -267.26534316    555.750691    0.38060   -0.09217   -0.63762    8
   10      0.366D-04      0.502D-05      -267.26534332    555.751302    0.38086   -0.09218   -0.63769    9
   11      0.147D-04      0.197D-05      -267.26534334    555.751143    0.38091   -0.09218   -0.63769    9
   12      0.651D-05      0.671D-06      -267.26534335    555.751278    0.38093   -0.09218   -0.63769    9
   13      0.227D-05      0.226D-06      -267.26534335    555.751193    0.38093   -0.09218   -0.63768    9
   14      0.632D-06      0.759D-07      -267.26534335    555.751202    0.38093   -0.09218   -0.63769    9
   15      0.193D-06      0.301D-07      -267.26534335    555.751198    0.38093   -0.09218   -0.63768    9
   16      0.826D-07      0.145D-07      -267.26534335    555.751200    0.38093   -0.09218   -0.63768    9
   17      0.375D-07      0.751D-08      -267.26534335    555.751199    0.38093   -0.09218   -0.63768    9
   18      0.222D-07      0.342D-08      -267.26534335    555.751200    0.38093   -0.09218   -0.63768    9
   19      0.114D-07      0.133D-08      -267.26534335    555.751200    0.38093   -0.09218   -0.63768    9
   20      0.444D-08      0.568D-09      -267.26534335    555.751200    0.38093   -0.09218   -0.63768    9
   21      0.166D-08      0.287D-09      -267.26534335    555.751200    0.38093   -0.09218   -0.63768    9
   22      0.755D-09      0.162D-09      -267.26534335    555.751200    0.38093   -0.09218   -0.63768    9
   23      0.447D-09      0.798D-10      -267.26534335    555.751200    0.38093   -0.09218   -0.63768    9
   24      0.264D-09      0.318D-10      -267.26534335    555.751200    0.38093   -0.09218   -0.63768    9
   25      0.935D-10      0.130D-10      -267.26534335    555.751200    0.38093   -0.09218   -0.63768    0

 Final alpha occupancy:  21
 Final beta  occupancy:  20

 !RHF STATE 1.1 Energy               -267.265343345680
 Nuclear energy                       183.21657614
 One-electron energy                 -728.35751929
 Two-electron energy                  277.87559980
 Virial quotient                       -1.00156730
 !RHF STATE 1.1 Dipole moment           0.38093336    -0.09217757    -0.63768469
 Dipole moment /Debye                   0.96817260    -0.23427668    -1.62072665

 Orbital energies:

         1.1          2.1          3.1          4.1          5.1          6.1          7.1          8.1          9.1         10.1
    -20.630506   -20.628760   -11.279281   -11.237900   -11.232578    -1.470268    -1.240887    -1.023168    -0.945160    -0.768433

        11.1         12.1         13.1         14.1         15.1         16.1         17.1         18.1         19.1         20.1
     -0.704714    -0.642859    -0.626739    -0.588825    -0.545070    -0.543378    -0.538951    -0.516754    -0.493053    -0.469728

        21.1         22.1         23.1
     -0.352297     0.181271     0.183556


 **********************************************************************************************************************************
 DATASETS  * FILE   NREC   LENGTH (MB)   RECORD NAMES
              1      18        3.17       500      610      700      900      950      970     1000      129      960     1100   
                                          VAR    BASINP    GEOM    SYMINP    ZMAT    AOBASIS   BASIS     P2S    ABASIS      S 
                                         1400     1410     1200     1210     1080     1600     1650     1700   
                                           T        V       H0       H01     AOSYM     SMH    MOLCAS    OPER   

              2       3        0.77       700     1000     2100   
                                         GEOM     BASIS     RHF  

 PROGRAMS   *        TOTAL       RHF       INT
 CPU TIMES  *         2.48      1.35      1.09
 REAL TIME  *         2.97 SEC
 DISK USED  *       334.85 MB      
 SF USED    *         0.04 MB      
 GA USED    *         0.00 MB       (max)       0.00 MB       (current)
 **********************************************************************************************************************************


1PROGRAM * CCSD (Unrestricted open-shell coupled cluster)     Authors: C. Hampel, H.-J. Werner, 1991, M. Deegan, P.J. Knowles, 1992


 Convergence thresholds:  THRVAR = 1.00D-08  THRDEN = 1.00D-10

 CCSD(T)     terms to be evaluated (factor= 1.000)


 Number of core orbitals:           5 (   5 )
 Number of closed-shell orbitals:  15 (  15 )
 Number of active  orbitals:        1 (   1 )
 Number of external orbitals:      84 (  84 )

 Memory could be reduced to 24.91 Mwords without degradation in triples

 Number of N-1 electron functions:              31
 Number of N-2 electron functions:             465
 Number of singly external CSFs:              2635
 Number of doubly external CSFs:           2537250
 Total number of CSFs:                     2539885

 Molecular orbitals read from record     2100.2  Type=RHF/CANONICAL (state 1.1)

 Integral transformation finished. Total CPU:   0.91 sec, npass=  1  Memory used:  12.63 MW

 Starting RMP2 calculation

 ITER.      SQ.NORM     CORR.ENERGY   TOTAL ENERGY   ENERGY CHANGE        DEN1      VAR(S)    VAR(P)  DIIS     TIME
   1      1.24306868    -0.78640157  -268.05174491    -0.78640157    -0.00305071  0.20D-04  0.11D-02  1  1     1.23
   2      1.24571139    -0.78969159  -268.05503493    -0.00329002    -0.00000475  0.54D-06  0.19D-05  2  2     1.51
   3      1.24577699    -0.78973368  -268.05507703    -0.00004209    -0.00000003  0.16D-07  0.68D-08  3  3     1.82
   4      1.24577795    -0.78973368  -268.05507703    -0.00000000    -0.00000000  0.27D-09  0.38D-10  4  4     2.16
   5      1.24577803    -0.78973372  -268.05507706    -0.00000003    -0.00000000  0.25D-11  0.65D-12  5  5     2.53
   6      1.24577804    -0.78973372  -268.05507707    -0.00000001    -0.00000000  0.28D-13  0.87D-14  6  6     2.92
   7      1.24577804    -0.78973372  -268.05507707     0.00000000    -0.00000000  0.47D-15  0.12D-15  6  1     3.32
   8      1.24577804    -0.78973372  -268.05507707     0.00000000    -0.00000000  0.60D-17  0.13D-17  6  2     3.71

 Norm of t1 vector:      0.03893436      S-energy:    -0.00227167      T1 diagnostic:  0.00055040
 Norm of t2 vector:      0.49422885      P-energy:    -0.78746205
                                         Alpha-Beta:  -0.59344182
                                         Alpha-Alpha: -0.10094104
                                         Beta-Beta:   -0.09307919

 Spin contamination <S**2-Sz**2-Sz>     0.00104036
  Reference energy                   -267.265343345679
  RHF-RMP2 correlation energy          -0.789733721731
 !RHF-RMP2 energy                    -268.055077067410

 Starting UCCSD calculation

 ITER.      SQ.NORM     CORR.ENERGY   TOTAL ENERGY   ENERGY CHANGE        DEN1      VAR(S)    VAR(P)  DIIS     TIME
   1      1.26285439    -0.80907707  -268.07442041    -0.80907707    -0.02516111  0.38D-02  0.59D-02  1  1     9.56
   2      1.29164186    -0.83649271  -268.10183605    -0.02741564    -0.00201176  0.22D-03  0.66D-03  2  2    15.22
   3      1.30158819    -0.84099306  -268.10633640    -0.00450035    -0.00032468  0.19D-03  0.56D-04  3  3    21.12
   4      1.30650223    -0.84247065  -268.10781400    -0.00147760    -0.00007208  0.43D-04  0.14D-04  4  4    27.51
   5      1.30923166    -0.84285879  -268.10820213    -0.00038813    -0.00002367  0.19D-04  0.32D-05  5  5    33.76
   6      1.31117024    -0.84306322  -268.10840657    -0.00020444    -0.00000646  0.42D-05  0.12D-05  6  6    40.01
   7      1.31211910    -0.84312197  -268.10846532    -0.00005875    -0.00000208  0.14D-05  0.37D-06  6  2    46.31
   8      1.31256041    -0.84316464  -268.10850798    -0.00004267    -0.00000065  0.45D-06  0.11D-06  6  1    52.60
   9      1.31274548    -0.84316922  -268.10851257    -0.00000458    -0.00000022  0.15D-06  0.35D-07  6  4    58.89
  10      1.31280867    -0.84317215  -268.10851550    -0.00000293    -0.00000005  0.35D-07  0.95D-08  6  3    65.18
  11      1.31283818    -0.84317089  -268.10851424     0.00000126    -0.00000002  0.13D-07  0.28D-08  6  5    71.48
  12      1.31284855    -0.84317063  -268.10851398     0.00000026    -0.00000000  0.26D-08  0.95D-09  6  6    77.79
  13      1.31284741    -0.84316972  -268.10851306     0.00000092    -0.00000000  0.96D-09  0.28D-09  6  2    84.06
  14      1.31284220    -0.84316887  -268.10851222     0.00000084    -0.00000000  0.21D-09  0.67D-10  6  1    90.35
  15      1.31283813    -0.84316829  -268.10851163     0.00000059    -0.00000000  0.78D-10  0.19D-10  6  4    96.64
  16      1.31283495    -0.84316790  -268.10851125     0.00000038    -0.00000000  0.28D-10  0.63D-11  6  3   102.93
  17      1.31283275    -0.84316766  -268.10851101     0.00000024    -0.00000000  0.10D-10  0.24D-11  6  5   109.23
  18      1.31283184    -0.84316760  -268.10851095     0.00000006    -0.00000000  0.41D-11  0.87D-12  6  6   115.53
  19      1.31283123    -0.84316757  -268.10851092     0.00000003    -0.00000000  0.16D-11  0.37D-12  6  2   121.81
  20      1.31283091    -0.84316756  -268.10851090     0.00000001    -0.00000000  0.60D-12  0.13D-12  6  1   128.10
  21      1.31283075    -0.84316755  -268.10851089     0.00000001    -0.00000000  0.28D-12  0.58D-13  6  4   134.38
  22      1.31283063    -0.84316754  -268.10851088     0.00000001    -0.00000000  0.74D-13  0.21D-13  6  3   140.26
  23      1.31283057    -0.84316754  -268.10851088     0.00000000    -0.00000000  0.21D-13  0.63D-14  6  5   146.05
  24      1.31283056    -0.84316754  -268.10851088    -0.00000000    -0.00000000  0.67D-14  0.23D-14  6  6   152.04
  25      1.31283057    -0.84316754  -268.10851088    -0.00000000    -0.00000000  0.21D-14  0.52D-15  6  2   157.82
  26      1.31283058    -0.84316754  -268.10851088    -0.00000000    -0.00000000  0.77D-15  0.15D-15  6  1   163.62
  27      1.31283059    -0.84316754  -268.10851089    -0.00000000    -0.00000000  0.20D-15  0.62D-16  6  3   169.40
  28      1.31283059    -0.84316754  -268.10851089    -0.00000000    -0.00000000  0.30D-16  0.11D-16  6  4   175.41
  29      1.31283059    -0.84316754  -268.10851089    -0.00000000    -0.00000000  0.70D-17  0.29D-17  6  5   181.20
  30      1.31283059    -0.84316754  -268.10851089    -0.00000000    -0.00000000  0.15D-17  0.54D-18  6  6   186.99
  31      1.31283059    -0.84316754  -268.10851089    -0.00000000    -0.00000000  0.35D-18  0.10D-18  6  2   192.78

 Norm of t1 vector:      0.13870929      S-energy:    -0.00282131      T1 diagnostic:  0.01616807
                                                                       D1 diagnostic:  0.06281750
 Norm of t2 vector:      0.54183976      P-energy:    -0.84034623
                                         Alpha-Beta:  -0.66490466
                                         Alpha-Alpha: -0.09147240
                                         Beta-Beta:   -0.08396917

 Spin contamination <S**2-Sz**2-Sz>     0.00217054

 Memory could be reduced to 28.85 Mwords without degradation in triples
 

 RESULTS
 =======

  Reference energy                   -267.265343345679
  UCCSD singles energy                 -0.002821306319
  UCCSD pair energy                    -0.840346233668
  UCCSD correlation energy             -0.843167539987
  Triples (T) contribution             -0.024981077922
  Total correlation energy             -0.868148617909
 
  RHF-UCCSD energy                   -268.108510885666
  RHF-UCCSD[T] energy                -268.134827965721
  RHF-UCCSD-T energy                 -268.133070383269
 !RHF-UCCSD(T) energy                -268.133491963589

 Program statistics:

 Available memory in ccsd:               999997692
 Min. memory needed in ccsd:               7337057
 Max. memory used in ccsd:                10523002
 Max. memory used in cckext:              10867977 (31 integral passes)
 Max. memory used in cckint:              12633073 ( 1 integral passes)



 **********************************************************************************************************************************
 DATASETS  * FILE   NREC   LENGTH (MB)   RECORD NAMES
              1      18        3.17       500      610      700      900      950      970     1000      129      960     1100   
                                          VAR    BASINP    GEOM    SYMINP    ZMAT    AOBASIS   BASIS     P2S    ABASIS      S 
                                         1400     1410     1200     1210     1080     1600     1650     1700   
                                           T        V       H0       H01     AOSYM     SMH    MOLCAS    OPER   

              2       3        0.77       700     1000     2100   
                                         GEOM     BASIS     RHF  

 PROGRAMS   *        TOTAL  UCCSD(T)       RHF       INT
 CPU TIMES  *       235.52    233.04      1.35      1.09
 REAL TIME  *       246.95 SEC
 DISK USED  *         1.30 GB      
 SF USED    *       553.73 MB      
 GA USED    *         0.00 MB       (max)       0.00 MB       (current)
 **********************************************************************************************************************************

        UCCSD(T)        RHF-SCF 
   -268.13349196   -267.26534335
 **********************************************************************************************************************************
 Variable memory released
