
 Primary working directories    : /tmp/320938.645.gen4.q
 Secondary working directories  : /tmp/320938.645.gen4.q
 Wavefunction directory         : /home/vulcan/mel64643/wfu/
 Main file repository           : /tmp/320938.645.gen4.q/

 ARCHNAME  : Linux/x86_64
 FC        : /opt/intel/compilers_and_libraries_2016.1.150/linux/bin/intel64/ifort
 FCVERSION : 16.0.1
 BLASLIB   : -mkl
 id        : ccgc

 Nodes     nprocs
 n039         3
 Number of processes for MPI-2 version of Molpro:   nprocs(total)=    4   nprocs(compute)=    3   nprocs(helper)=    1
 ga_uses_ma=false, calling ma_init with nominal heap.
 GA-space will be limited to   8.0 MW (determined by -G option)

 Using customized tuning parameters: mindgm=10; mindgv=16; mindgc=4; mindgr=1; noblas=0; mincuda=1000; minvec=7
 default implementation of scratch files=sf  

 ***,Frequencies for min3
 memory,1000,m
 gthresh,energy=1.0d-10,orbital=1.0d-10,oneint=1.0d-16,twoint=1.0d-16,optgrad=1.0d-6,compress=1.0d-13
 geomtyp=xyz
 
  geometry = {
  12
  arbitrary comment
     C    1.776964391707    0.711398808326   -0.047331391796
     C    0.491811976407   -0.059992870174   -0.196493901896
     C    0.450332819107   -1.536294019674    0.101417522804
     O   -0.560767745493    0.727234937526    0.254453964104
     O   -1.837840335593    0.092269037726   -0.120531795196
     H    2.585373063107    0.211465914126   -0.611440883996
     H    1.660426393907    1.742887987326   -0.426532369096
     H    2.097119204326    0.774552271997    1.018306783219
     H   -0.505104555209   -1.983005164565   -0.218512674680
     H    1.282265572913   -2.046070715019   -0.417674006604
     H    0.560487199134   -1.720115112268    1.193905960013
     H   -1.988883269728    0.550372823085   -0.967869883126
  }
 
 basis=cc-pvdz
 {rhf;maxit,200}
 {uccsd(t);maxit,200}

 Variables initialized (661), CPU time= 0.01 sec
 Commands  initialized (458), CPU time= 0.00 sec, 486 directives.
 Default parameters read. Elapsed time= 0.05 sec

 Checking input...
 Passed
1


                                         ***  PROGRAM SYSTEM MOLPRO  ***
                         Copyright, University College Cardiff Consultants Limited, 2008

                                    Version 2010.1 linked May 16 2016 07:17:05


 **********************************************************************************************************************************
 LABEL *   Frequencies for min3                                                          
 Linux-4.4.3/n039(x86_64) 64 bit mpp version                                             DATE: 07-Mar-20          TIME: 04:46:05  
 **********************************************************************************************************************************

 SHA1:             9e8077add272b0f3cad6f7df79ec5211205f459d
 **********************************************************************************************************************************

 THRESHOLDS:

 ZERO    =  1.00D-12  ONEINT  =  1.00D-16  TWOINT  =  1.00D-16  PREFAC  =  1.00D-14  LOCALI  =  1.00D-09  EORDER  =  1.00D-04
 ENERGY  =  1.00D-10  ETEST   =  0.00D+00  EDENS   =  0.00D+00  THRDEDEF=  1.00D-06  GRADIENT=  1.00D-02  STEP    =  1.00D-03
 ORBITAL =  1.00D-10  CIVEC   =  1.00D-05  COEFF   =  1.00D-04  PRINTCI =  5.00D-02  PUNCHCI =  9.90D+01  OPTGRAD =  1.00D-06
 OPTENERG=  1.00D-06  OPTSTEP =  3.00D-04  THRGRAD =  1.00D-10  COMPRESS=  1.00D-13  VARMIN  =  1.00D-07  VARMAX  =  1.00D-03
 THRDOUB =  0.00D+00  THRDIV  =  1.00D-05  THRRED  =  1.00D-07  THRPSP  =  1.00D+00  THRDC   =  1.00D-10  THRCS   =  1.00D-10
 THRNRM  =  1.00D-08  THREQ   =  0.00D+00  THRDE   =  1.00D+00  THRREF  =  1.00D-05  SPARFAC =  1.00D+00  THRDLP  =  1.00D-07
 THRDIA  =  1.00D-10  THRDLS  =  1.00D-07  THRGPS  =  0.00D+00  THRKEX  =  0.00D+00  THRDIS  =  2.00D-01  THRVAR  =  1.00D-10
 THRLOC  =  1.00D-06  THRGAP  =  1.00D-06  THRLOCT = -1.00D+00  THRGAPT = -1.00D+00  THRORB  =  1.00D-06  THRMLTP =  0.00D+00
 THRCPQCI=  1.00D-10  KEXTA   =  0.00D+00  THRCOARS=  0.00D+00  SYMTOL  =  1.00D-06  GRADTOL =  1.00D-06  THROVL  =  1.00D-08
 THRORTH =  1.00D-08  GRID    =  1.00D-06  GRIDMAX =  1.00D-03  DTMAX   =  0.00D+00

 SETTING GEOMTYP        =    XYZ

 Variable memory set to 1000000000 words,  buffer space   230000 words

 SETTING BASIS          =    CC-PVDZ


 Recomputing integrals since basis changed


 Using spherical harmonics

 Library entry C      S cc-pVDZ              selected for orbital group  1
 Library entry C      P cc-pVDZ              selected for orbital group  1
 Library entry C      D cc-pVDZ              selected for orbital group  1
 Library entry O      S cc-pVDZ              selected for orbital group  2
 Library entry O      P cc-pVDZ              selected for orbital group  2
 Library entry O      D cc-pVDZ              selected for orbital group  2
 Library entry H      S cc-pVDZ              selected for orbital group  3
 Library entry H      P cc-pVDZ              selected for orbital group  3

1PROGRAM * SEWARD (Integral evaluation for generally contracted gaussian basis sets)     Author: Roland Lindh, 1990

 Geometry written to block  1 of record 700


 Point group  C1  



 ATOMIC COORDINATES

 NR  ATOM    CHARGE       X              Y              Z

   1  C       6.00    3.357976046    1.344348918   -0.089443368
   2  C       6.00    0.929389944   -0.113370094   -0.371319661
   3  C       6.00    0.851005696   -2.903174955    0.191651343
   4  O       8.00   -1.059697462    1.374274865    0.480848305
   5  O       8.00   -3.473014908    0.174363212   -0.227772083
   6  H       1.00    4.885647037    0.399612664   -1.155455816
   7  H       1.00    3.137751146    3.293580974   -0.806029364
   8  H       1.00    3.962980961    1.463691669    1.924320938
   9  H       1.00   -0.954509277   -3.747336678   -0.412929111
  10  H       1.00    2.423130761   -3.866513297   -0.789289485
  11  H       1.00    1.059167307   -3.250546477    2.256155291
  12  H       1.00   -3.758444687    1.040053906   -1.829009010

 Bond lengths in Bohr (Angstrom)

 1-2  2.846476668  1-6  2.088704811  1-7  2.088420481  1-8  2.106067501  2-3  2.847119878
     ( 1.506290578)     ( 1.105294982)     ( 1.105144521)     ( 1.114482922)     ( 1.506630951)

  2- 4  2.625975338   3- 9  2.082789202   3-10  2.088502547   3-11  2.103847614   4- 5  2.786760112
       ( 1.389606300)       ( 1.102164577)       ( 1.105187949)       ( 1.113308208)       ( 1.474689938)

  5-12  1.842511936
       ( 0.975015324)

 Bond angles

  1-2-3  120.37866573   1-2-4  108.90555081   2-1-6  109.98947225   2-1-7  110.73429490

  2- 1- 8  111.64161223   2- 3- 9  111.32227043   2- 3-10  109.77793896   2- 3-11  110.67706403

  2- 4- 5  109.23946113   3- 2- 4  118.03986083   4- 5-12   98.79122022   6- 1- 7  108.91518355

  6- 1- 8  107.66950754   7- 1- 8  107.78754214   9- 3-10  109.22348707   9- 3-11  107.67977289

 10- 3-11  108.07510804

 NUCLEAR CHARGE:                   41
 NUMBER OF PRIMITIVE AOS:         184
 NUMBER OF SYMMETRY AOS:          179
 NUMBER OF CONTRACTIONS:          105   ( 105A   )
 NUMBER OF CORE ORBITALS:           5   (   5A   )
 NUMBER OF VALENCE ORBITALS:       27   (  27A   )


 NUCLEAR REPULSION ENERGY  183.21438886


 Eigenvalues of metric

         1 0.345E-02 0.435E-02 0.105E-01 0.141E-01 0.182E-01 0.214E-01 0.331E-01 0.345E-01


 Contracted 2-electron integrals neglected if value below      1.0D-16
 AO integral compression algorithm  1   Integral accuracy      1.0D-16

     127.402 MB (compressed) written to integral file ( 93.4%)

     Node minimum: 30.933 MB, node maximum: 50.070 MB


 NUMBER OF SORTED TWO-ELECTRON INTEGRALS:    5164320.     BUFFER LENGTH:  32768
 NUMBER OF SEGMENTS:   1  SEGMENT LENGTH:    5164320      RECORD LENGTH: 524288

 Memory used in sort:       5.72 MW

 SORT1 READ    17075251. AND WROTE     5135849. INTEGRALS IN     15 RECORDS. CPU TIME:     0.33 SEC, REAL TIME:     0.39 SEC
 SORT2 READ    15396492. AND WROTE    15487395. INTEGRALS IN    531 RECORDS. CPU TIME:     0.11 SEC, REAL TIME:     0.16 SEC

 Node minimum:     5160610.  Node maximum:     5164320. integrals

 OPERATOR DM      FOR CENTER  0  COORDINATES:    0.000000    0.000000    0.000000


 **********************************************************************************************************************************
 DATASETS  * FILE   NREC   LENGTH (MB)   RECORD NAMES
              1      18        3.17       500      610      700      900      950      970     1000      129      960     1100   
                                          VAR    BASINP    GEOM    SYMINP    ZMAT    AOBASIS   BASIS     P2S    ABASIS      S 
                                         1400     1410     1200     1210     1080     1600     1650     1700   
                                           T        V       H0       H01     AOSYM     SMH    MOLCAS    OPER   

 PROGRAMS   *        TOTAL       INT
 CPU TIMES  *         1.49      1.43
 REAL TIME  *         1.81 SEC
 DISK USED  *       315.71 MB      
 GA USED    *         0.00 MB       (max)       0.00 MB       (current)
 **********************************************************************************************************************************

1PROGRAM * RHF-SCF (OPEN SHELL)       Authors: W. Meyer, H.-J. Werner


 NUMBER OF ELECTRONS:      21+   20-    SPACE SYMMETRY=1    SPIN SYMMETRY: Doublet 
 CONVERGENCE THRESHOLDS:    1.00E-10 (Density)    1.00E-11 (Energy)
 MAX. NUMBER OF ITERATIONS:      200
 INTERPOLATION TYPE:            DIIS
 INTERPOLATION STEPS:              2 (START)      1 (STEP)
 LEVEL SHIFTS:                 -0.30 (CLOSED)  0.00 (OPEN) 



 Orbital guess generated from atomic densities. Full valence occupancy:   32

 Molecular orbital dump at record        2100.2

 ITERATION    DDIFF          GRAD             ENERGY        2-EL.EN.            DIPOLE MOMENTS         DIIS
    1      0.000D+00      0.000D+00      -267.17822054    555.805385    0.56921    0.04950   -0.75004    0
    2      0.000D+00      0.617D-02      -267.24889723    555.725555    0.41323   -0.13127   -0.59909    1
    3      0.927D-02      0.214D-02      -267.26107218    555.643769    0.39296   -0.05950   -0.62644    2
    4      0.336D-02      0.912D-03      -267.26467821    555.795878    0.37841   -0.09970   -0.64277    3
    5      0.186D-02      0.363D-03      -267.26524663    555.767239    0.38098   -0.09325   -0.63573    4
    6      0.792D-03      0.110D-03      -267.26532288    555.753489    0.37926   -0.09306   -0.63846    5
    7      0.277D-03      0.510D-04      -267.26534294    555.750481    0.37855   -0.09281   -0.63795    6
    8      0.143D-03      0.272D-04      -267.26534897    555.748535    0.37883   -0.09292   -0.63816    7
    9      0.922D-04      0.115D-04      -267.26534989    555.748847    0.37902   -0.09288   -0.63792    8
   10      0.365D-04      0.501D-05      -267.26535005    555.749459    0.37928   -0.09289   -0.63798    9
   11      0.147D-04      0.196D-05      -267.26535007    555.749301    0.37933   -0.09289   -0.63799    9
   12      0.651D-05      0.670D-06      -267.26535007    555.749436    0.37935   -0.09289   -0.63798    9
   13      0.227D-05      0.226D-06      -267.26535007    555.749351    0.37935   -0.09289   -0.63798    9
   14      0.631D-06      0.757D-07      -267.26535007    555.749360    0.37935   -0.09289   -0.63798    9
   15      0.192D-06      0.300D-07      -267.26535008    555.749356    0.37935   -0.09289   -0.63798    9
   16      0.823D-07      0.145D-07      -267.26535008    555.749358    0.37935   -0.09289   -0.63798    9
   17      0.373D-07      0.748D-08      -267.26535008    555.749358    0.37935   -0.09289   -0.63798    9
   18      0.222D-07      0.341D-08      -267.26535008    555.749358    0.37935   -0.09289   -0.63798    9
   19      0.114D-07      0.133D-08      -267.26535008    555.749358    0.37935   -0.09289   -0.63798    9
   20      0.443D-08      0.565D-09      -267.26535008    555.749358    0.37935   -0.09289   -0.63798    9
   21      0.165D-08      0.285D-09      -267.26535008    555.749358    0.37935   -0.09289   -0.63798    9
   22      0.751D-09      0.161D-09      -267.26535008    555.749358    0.37935   -0.09289   -0.63798    9
   23      0.444D-09      0.793D-10      -267.26535008    555.749358    0.37935   -0.09289   -0.63798    9
   24      0.263D-09      0.316D-10      -267.26535008    555.749358    0.37935   -0.09289   -0.63798    9
   25      0.929D-10      0.129D-10      -267.26535008    555.749358    0.37935   -0.09289   -0.63798    0

 Final alpha occupancy:  21
 Final beta  occupancy:  20

 !RHF STATE 1.1 Energy               -267.265350075007
 Nuclear energy                       183.21438886
 One-electron energy                 -728.35441777
 Two-electron energy                  277.87467883
 Virial quotient                       -1.00156183
 !RHF STATE 1.1 Dipole moment           0.37935232    -0.09289139    -0.63798125
 Dipole moment /Debye                   0.96415426    -0.23609089    -1.62148037

 Orbital energies:

         1.1          2.1          3.1          4.1          5.1          6.1          7.1          8.1          9.1         10.1
    -20.630474   -20.628841   -11.279308   -11.238008   -11.232080    -1.470059    -1.240613    -1.023196    -0.945327    -0.768473

        11.1         12.1         13.1         14.1         15.1         16.1         17.1         18.1         19.1         20.1
     -0.704450    -0.643085    -0.626744    -0.588629    -0.545073    -0.543371    -0.538849    -0.517025    -0.492996    -0.469749

        21.1         22.1         23.1
     -0.352359     0.181233     0.183484


 **********************************************************************************************************************************
 DATASETS  * FILE   NREC   LENGTH (MB)   RECORD NAMES
              1      18        3.17       500      610      700      900      950      970     1000      129      960     1100   
                                          VAR    BASINP    GEOM    SYMINP    ZMAT    AOBASIS   BASIS     P2S    ABASIS      S 
                                         1400     1410     1200     1210     1080     1600     1650     1700   
                                           T        V       H0       H01     AOSYM     SMH    MOLCAS    OPER   

              2       3        0.77       700     1000     2100   
                                         GEOM     BASIS     RHF  

 PROGRAMS   *        TOTAL       RHF       INT
 CPU TIMES  *         3.43      1.93      1.43
 REAL TIME  *         3.93 SEC
 DISK USED  *       332.28 MB      
 SF USED    *         0.04 MB      
 GA USED    *         0.00 MB       (max)       0.00 MB       (current)
 **********************************************************************************************************************************


1PROGRAM * CCSD (Unrestricted open-shell coupled cluster)     Authors: C. Hampel, H.-J. Werner, 1991, M. Deegan, P.J. Knowles, 1992


 Convergence thresholds:  THRVAR = 1.00D-08  THRDEN = 1.00D-10

 CCSD(T)     terms to be evaluated (factor= 1.000)


 Number of core orbitals:           5 (   5 )
 Number of closed-shell orbitals:  15 (  15 )
 Number of active  orbitals:        1 (   1 )
 Number of external orbitals:      84 (  84 )

 Memory could be reduced to 24.91 Mwords without degradation in triples

 Number of N-1 electron functions:              31
 Number of N-2 electron functions:             465
 Number of singly external CSFs:              2635
 Number of doubly external CSFs:           2537250
 Total number of CSFs:                     2539885

 Molecular orbitals read from record     2100.2  Type=RHF/CANONICAL (state 1.1)

 Integral transformation finished. Total CPU:   1.59 sec, npass=  1  Memory used:  12.63 MW

 Starting RMP2 calculation

 ITER.      SQ.NORM     CORR.ENERGY   TOTAL ENERGY   ENERGY CHANGE        DEN1      VAR(S)    VAR(P)  DIIS     TIME
   1      1.24305861    -0.78640819  -268.05175827    -0.78640819    -0.00305046  0.20D-04  0.11D-02  1  1     2.07
   2      1.24570087    -0.78969793  -268.05504801    -0.00328974    -0.00000475  0.54D-06  0.19D-05  2  2     2.49
   3      1.24576647    -0.78974002  -268.05509010    -0.00004209    -0.00000003  0.16D-07  0.68D-08  3  3     2.92
   4      1.24576742    -0.78974003  -268.05509010    -0.00000000    -0.00000000  0.27D-09  0.38D-10  4  4     3.32
   5      1.24576751    -0.78974006  -268.05509013    -0.00000003    -0.00000000  0.25D-11  0.65D-12  5  5     3.76
   6      1.24576752    -0.78974006  -268.05509014    -0.00000001    -0.00000000  0.28D-13  0.87D-14  6  6     4.22
   7      1.24576752    -0.78974006  -268.05509014     0.00000000    -0.00000000  0.47D-15  0.12D-15  6  1     4.68
   8      1.24576752    -0.78974006  -268.05509014     0.00000000    -0.00000000  0.60D-17  0.13D-17  6  2     5.14

 Norm of t1 vector:      0.03893269      S-energy:    -0.00227139      T1 diagnostic:  0.00055059
 Norm of t2 vector:      0.49421834      P-energy:    -0.78746867
                                         Alpha-Beta:  -0.59344337
                                         Alpha-Alpha: -0.10094287
                                         Beta-Beta:   -0.09308244

 Spin contamination <S**2-Sz**2-Sz>     0.00104033
  Reference energy                   -267.265350075007
  RHF-RMP2 correlation energy          -0.789740064289
 !RHF-RMP2 energy                    -268.055090139296

 Starting UCCSD calculation

 ITER.      SQ.NORM     CORR.ENERGY   TOTAL ENERGY   ENERGY CHANGE        DEN1      VAR(S)    VAR(P)  DIIS     TIME
   1      1.26283317    -0.80907463  -268.07442470    -0.80907463    -0.02516097  0.38D-02  0.59D-02  1  1    11.84
   2      1.29161770    -0.83648917  -268.10183924    -0.02741454    -0.00201218  0.22D-03  0.66D-03  2  2    18.57
   3      1.30156584    -0.84098960  -268.10633967    -0.00450043    -0.00032487  0.19D-03  0.56D-04  3  3    25.31
   4      1.30648333    -0.84246775  -268.10781783    -0.00147816    -0.00007214  0.43D-04  0.14D-04  4  4    32.07
   5      1.30921567    -0.84285622  -268.10820629    -0.00038847    -0.00002368  0.19D-04  0.32D-05  5  5    38.80
   6      1.31115600    -0.84306082  -268.10841089    -0.00020460    -0.00000646  0.42D-05  0.12D-05  6  6    45.60
   7      1.31210553    -0.84311962  -268.10846969    -0.00005880    -0.00000208  0.14D-05  0.37D-06  6  2    52.43
   8      1.31254711    -0.84316230  -268.10851237    -0.00004268    -0.00000065  0.45D-06  0.11D-06  6  1    59.28
   9      1.31273234    -0.84316688  -268.10851696    -0.00000459    -0.00000022  0.15D-06  0.35D-07  6  4    66.16
  10      1.31279553    -0.84316982  -268.10851989    -0.00000293    -0.00000005  0.35D-07  0.95D-08  6  3    72.97
  11      1.31282500    -0.84316855  -268.10851863     0.00000127    -0.00000002  0.13D-07  0.28D-08  6  5    79.77
  12      1.31283537    -0.84316829  -268.10851836     0.00000026    -0.00000000  0.26D-08  0.95D-09  6  6    86.58
  13      1.31283423    -0.84316737  -268.10851745     0.00000092    -0.00000000  0.96D-09  0.29D-09  6  2    93.41
  14      1.31282902    -0.84316653  -268.10851660     0.00000084    -0.00000000  0.21D-09  0.68D-10  6  1   100.23
  15      1.31282495    -0.84316594  -268.10851602     0.00000059    -0.00000000  0.78D-10  0.19D-10  6  4   107.93
  16      1.31282176    -0.84316556  -268.10851563     0.00000038    -0.00000000  0.28D-10  0.63D-11  6  3   114.74
  17      1.31281956    -0.84316532  -268.10851540     0.00000024    -0.00000000  0.10D-10  0.24D-11  6  5   121.56
  18      1.31281865    -0.84316526  -268.10851534     0.00000006    -0.00000000  0.41D-11  0.87D-12  6  6   128.38
  19      1.31281804    -0.84316523  -268.10851530     0.00000003    -0.00000000  0.16D-11  0.37D-12  6  2   135.20
  20      1.31281772    -0.84316521  -268.10851529     0.00000001    -0.00000000  0.60D-12  0.13D-12  6  1   142.01
  21      1.31281756    -0.84316520  -268.10851528     0.00000001    -0.00000000  0.28D-12  0.58D-13  6  4   148.87
  22      1.31281744    -0.84316520  -268.10851527     0.00000001    -0.00000000  0.74D-13  0.21D-13  6  3   155.72
  23      1.31281738    -0.84316519  -268.10851527     0.00000000    -0.00000000  0.21D-13  0.63D-14  6  5   162.54
  24      1.31281737    -0.84316519  -268.10851527    -0.00000000    -0.00000000  0.68D-14  0.23D-14  6  6   169.42
  25      1.31281738    -0.84316519  -268.10851527    -0.00000000    -0.00000000  0.21D-14  0.53D-15  6  2   176.23
  26      1.31281738    -0.84316520  -268.10851527    -0.00000000    -0.00000000  0.77D-15  0.15D-15  6  1   183.03
  27      1.31281739    -0.84316520  -268.10851527    -0.00000000    -0.00000000  0.20D-15  0.63D-16  6  3   189.92
  28      1.31281740    -0.84316520  -268.10851527    -0.00000000    -0.00000000  0.30D-16  0.11D-16  6  4   197.25
  29      1.31281740    -0.84316520  -268.10851527    -0.00000000    -0.00000000  0.71D-17  0.29D-17  6  5   204.05
  30      1.31281740    -0.84316520  -268.10851527    -0.00000000    -0.00000000  0.15D-17  0.54D-18  6  6   210.86
  31      1.31281740    -0.84316520  -268.10851527    -0.00000000    -0.00000000  0.35D-18  0.10D-18  6  2   217.69

 Norm of t1 vector:      0.13875400      S-energy:    -0.00282110      T1 diagnostic:  0.01617414
                                                                       D1 diagnostic:  0.06284812
 Norm of t2 vector:      0.54181614      P-energy:    -0.84034409
                                         Alpha-Beta:  -0.66489994
                                         Alpha-Alpha: -0.09147276
                                         Beta-Beta:   -0.08397139

 Spin contamination <S**2-Sz**2-Sz>     0.00217203

 Memory could be reduced to 28.85 Mwords without degradation in triples
 

 RESULTS
 =======

  Reference energy                   -267.265350075007
  UCCSD singles energy                 -0.002821103427
  UCCSD pair energy                    -0.840344093372
  UCCSD correlation energy             -0.843165196800
  Triples (T) contribution             -0.024979653124
  Total correlation energy             -0.868144849923
 
  RHF-UCCSD energy                   -268.108515271806
  RHF-UCCSD[T] energy                -268.134831407834
  RHF-UCCSD-T energy                 -268.133073227374
 !RHF-UCCSD(T) energy                -268.133494924930

 Program statistics:

 Available memory in ccsd:               999997692
 Min. memory needed in ccsd:               7337057
 Max. memory used in ccsd:                10523002
 Max. memory used in cckext:              10867977 (31 integral passes)
 Max. memory used in cckint:              12633073 ( 1 integral passes)



 **********************************************************************************************************************************
 DATASETS  * FILE   NREC   LENGTH (MB)   RECORD NAMES
              1      18        3.17       500      610      700      900      950      970     1000      129      960     1100   
                                          VAR    BASINP    GEOM    SYMINP    ZMAT    AOBASIS   BASIS     P2S    ABASIS      S 
                                         1400     1410     1200     1210     1080     1600     1650     1700   
                                           T        V       H0       H01     AOSYM     SMH    MOLCAS    OPER   

              2       3        0.77       700     1000     2100   
                                         GEOM     BASIS     RHF  

 PROGRAMS   *        TOTAL  UCCSD(T)       RHF       INT
 CPU TIMES  *       282.37    278.94      1.93      1.43
 REAL TIME  *       296.13 SEC
 DISK USED  *         1.30 GB      
 SF USED    *       553.73 MB      
 GA USED    *         0.00 MB       (max)       0.00 MB       (current)
 **********************************************************************************************************************************

        UCCSD(T)        RHF-SCF 
   -268.13349492   -267.26535008
 **********************************************************************************************************************************
 Variable memory released
