
 Primary working directories    : /tmp/320938.476.gen6.q
 Secondary working directories  : /tmp/320938.476.gen6.q
 Wavefunction directory         : /home/vulcan/mel64643/wfu/
 Main file repository           : /tmp/320938.476.gen6.q/

 ARCHNAME  : Linux/x86_64
 FC        : /opt/intel/compilers_and_libraries_2016.1.150/linux/bin/intel64/ifort
 FCVERSION : 16.0.1
 BLASLIB   : -mkl
 id        : ccgc

 Nodes     nprocs
 n078         3
 Number of processes for MPI-2 version of Molpro:   nprocs(total)=    4   nprocs(compute)=    3   nprocs(helper)=    1
 ga_uses_ma=false, calling ma_init with nominal heap.
 GA-space will be limited to   8.0 MW (determined by -G option)

 Using customized tuning parameters: mindgm=10; mindgv=16; mindgc=4; mindgr=1; noblas=0; mincuda=1000; minvec=7
 default implementation of scratch files=sf  

 ***,Frequencies for min3
 memory,1000,m
 gthresh,energy=1.0d-10,orbital=1.0d-10,oneint=1.0d-16,twoint=1.0d-16,optgrad=1.0d-6,compress=1.0d-13
 geomtyp=xyz
 
  geometry = {
  12
  arbitrary comment
     C    1.776964391707    0.711398808326   -0.046821519474
     C    0.491772914207   -0.060028174781   -0.196761682970
     C    0.450345077466   -1.536282654516    0.101388159445
     O   -0.560717392583    0.727274119304    0.254264859039
     O   -1.837864259533    0.092254635938   -0.120377205431
     H    2.585255590082    0.211357702265   -0.612151972707
     H    1.660350277008    1.742812233368   -0.427305404866
     H    2.095320176708    0.774196115869    1.018141263889
     H   -0.505285557437   -1.982808753894   -0.219117707254
     H    1.281231626133   -2.048140843004   -0.418145351043
     H    0.563076787025   -1.717890947659    1.194179487433
     H   -1.988365589249    0.550454264237   -0.967402521347
  }
 
 basis=cc-pvdz
 {rhf;maxit,200}
 {uccsd(t);maxit,200}

 Variables initialized (661), CPU time= 0.00 sec
 Commands  initialized (458), CPU time= 0.01 sec, 486 directives.
 Default parameters read. Elapsed time= 0.05 sec

 Checking input...
 Passed
1


                                         ***  PROGRAM SYSTEM MOLPRO  ***
                         Copyright, University College Cardiff Consultants Limited, 2008

                                    Version 2010.1 linked May 16 2016 07:17:05


 **********************************************************************************************************************************
 LABEL *   Frequencies for min3                                                          
 Linux-4.4.3/n078(x86_64) 64 bit mpp version                                             DATE: 07-Mar-20          TIME: 03:45:35  
 **********************************************************************************************************************************

 SHA1:             9e8077add272b0f3cad6f7df79ec5211205f459d
 **********************************************************************************************************************************

 THRESHOLDS:

 ZERO    =  1.00D-12  ONEINT  =  1.00D-16  TWOINT  =  1.00D-16  PREFAC  =  1.00D-14  LOCALI  =  1.00D-09  EORDER  =  1.00D-04
 ENERGY  =  1.00D-10  ETEST   =  0.00D+00  EDENS   =  0.00D+00  THRDEDEF=  1.00D-06  GRADIENT=  1.00D-02  STEP    =  1.00D-03
 ORBITAL =  1.00D-10  CIVEC   =  1.00D-05  COEFF   =  1.00D-04  PRINTCI =  5.00D-02  PUNCHCI =  9.90D+01  OPTGRAD =  1.00D-06
 OPTENERG=  1.00D-06  OPTSTEP =  3.00D-04  THRGRAD =  1.00D-10  COMPRESS=  1.00D-13  VARMIN  =  1.00D-07  VARMAX  =  1.00D-03
 THRDOUB =  0.00D+00  THRDIV  =  1.00D-05  THRRED  =  1.00D-07  THRPSP  =  1.00D+00  THRDC   =  1.00D-10  THRCS   =  1.00D-10
 THRNRM  =  1.00D-08  THREQ   =  0.00D+00  THRDE   =  1.00D+00  THRREF  =  1.00D-05  SPARFAC =  1.00D+00  THRDLP  =  1.00D-07
 THRDIA  =  1.00D-10  THRDLS  =  1.00D-07  THRGPS  =  0.00D+00  THRKEX  =  0.00D+00  THRDIS  =  2.00D-01  THRVAR  =  1.00D-10
 THRLOC  =  1.00D-06  THRGAP  =  1.00D-06  THRLOCT = -1.00D+00  THRGAPT = -1.00D+00  THRORB  =  1.00D-06  THRMLTP =  0.00D+00
 THRCPQCI=  1.00D-10  KEXTA   =  0.00D+00  THRCOARS=  0.00D+00  SYMTOL  =  1.00D-06  GRADTOL =  1.00D-06  THROVL  =  1.00D-08
 THRORTH =  1.00D-08  GRID    =  1.00D-06  GRIDMAX =  1.00D-03  DTMAX   =  0.00D+00

 SETTING GEOMTYP        =    XYZ

 Variable memory set to 1000000000 words,  buffer space   230000 words

 SETTING BASIS          =    CC-PVDZ


 Recomputing integrals since basis changed


 Using spherical harmonics

 Library entry C      S cc-pVDZ              selected for orbital group  1
 Library entry C      P cc-pVDZ              selected for orbital group  1
 Library entry C      D cc-pVDZ              selected for orbital group  1
 Library entry O      S cc-pVDZ              selected for orbital group  2
 Library entry O      P cc-pVDZ              selected for orbital group  2
 Library entry O      D cc-pVDZ              selected for orbital group  2
 Library entry H      S cc-pVDZ              selected for orbital group  3
 Library entry H      P cc-pVDZ              selected for orbital group  3

1PROGRAM * SEWARD (Integral evaluation for generally contracted gaussian basis sets)     Author: Roland Lindh, 1990

 Geometry written to block  1 of record 700


 Point group  C1  



 ATOMIC COORDINATES

 NR  ATOM    CHARGE       X              Y              Z

   1  C       6.00    3.357976046    1.344348918   -0.088479849
   2  C       6.00    0.929316127   -0.113436811   -0.371825694
   3  C       6.00    0.851028861   -2.903153477    0.191595854
   4  O       8.00   -1.059602309    1.374348908    0.480490948
   5  O       8.00   -3.473060117    0.174335996   -0.227479951
   6  H       1.00    4.885425045    0.399408173   -1.156799579
   7  H       1.00    3.137607306    3.293437820   -0.807490190
   8  H       1.00    3.959581292    1.463018631    1.924008152
   9  H       1.00   -0.954851322   -3.746965516   -0.414072457
  10  H       1.00    2.421176884   -3.870425272   -0.790180197
  11  H       1.00    1.064060918   -3.246343415    2.256672183
  12  H       1.00   -3.757466413    1.040207807   -1.828125824

 Bond lengths in Bohr (Angstrom)

 1-2  2.846719709  1-6  2.089813509  1-7  2.089135179  1-8  2.103834434  2-3  2.847119917
     ( 1.506419190)     ( 1.105881680)     ( 1.105522723)     ( 1.113301234)     ( 1.506630971)

  2- 4  2.625975352   3- 9  2.083280129   3-10  2.089225635   3-11  2.104210596   4- 5  2.786760193
       ( 1.389606307)       ( 1.102424364)       ( 1.105570590)       ( 1.113500291)       ( 1.474689981)

  5-12  1.841925120
       ( 0.974704794)

 Bond angles

  1-2-3  120.36656221   1-2-4  108.88878762   2-1-6  109.94581723   2-1-7  110.70252672

  2- 1- 8  111.59600583   2- 3- 9  111.29541497   2- 3-10  109.87609622   2- 3-11  110.56293025

  2- 4- 5  109.23946093   3- 2- 4  118.03985942   4- 5-12   98.74668025   6- 1- 7  108.84522543

  6- 1- 8  107.78862056   7- 1- 8  107.86417669   9- 3-10  109.10663076   9- 3-11  107.87976809

 10- 3-11  108.03427948

 NUCLEAR CHARGE:                   41
 NUMBER OF PRIMITIVE AOS:         184
 NUMBER OF SYMMETRY AOS:          179
 NUMBER OF CONTRACTIONS:          105   ( 105A   )
 NUMBER OF CORE ORBITALS:           5   (   5A   )
 NUMBER OF VALENCE ORBITALS:       27   (  27A   )


 NUCLEAR REPULSION ENERGY  183.21770151


 Eigenvalues of metric

         1 0.345E-02 0.435E-02 0.105E-01 0.141E-01 0.182E-01 0.214E-01 0.331E-01 0.346E-01


 Contracted 2-electron integrals neglected if value below      1.0D-16
 AO integral compression algorithm  1   Integral accuracy      1.0D-16

     127.664 MB (compressed) written to integral file ( 93.2%)

     Node minimum: 31.982 MB, node maximum: 49.545 MB


 NUMBER OF SORTED TWO-ELECTRON INTEGRALS:    5164320.     BUFFER LENGTH:  32768
 NUMBER OF SEGMENTS:   1  SEGMENT LENGTH:    5164320      RECORD LENGTH: 524288

 Memory used in sort:       5.72 MW

 SORT1 READ    17075332. AND WROTE     5135888. INTEGRALS IN     15 RECORDS. CPU TIME:     0.29 SEC, REAL TIME:     0.32 SEC
 SORT2 READ    15396596. AND WROTE    15487395. INTEGRALS IN    366 RECORDS. CPU TIME:     0.08 SEC, REAL TIME:     0.12 SEC

 Node minimum:     5160610.  Node maximum:     5164320. integrals

 OPERATOR DM      FOR CENTER  0  COORDINATES:    0.000000    0.000000    0.000000


 **********************************************************************************************************************************
 DATASETS  * FILE   NREC   LENGTH (MB)   RECORD NAMES
              1      18        3.17       500      610      700      900      950      970     1000      129      960     1100   
                                          VAR    BASINP    GEOM    SYMINP    ZMAT    AOBASIS   BASIS     P2S    ABASIS      S 
                                         1400     1410     1200     1210     1080     1600     1650     1700   
                                           T        V       H0       H01     AOSYM     SMH    MOLCAS    OPER   

 PROGRAMS   *        TOTAL       INT
 CPU TIMES  *         1.01      0.94
 REAL TIME  *         1.39 SEC
 DISK USED  *       314.71 MB      
 GA USED    *         0.00 MB       (max)       0.00 MB       (current)
 **********************************************************************************************************************************

1PROGRAM * RHF-SCF (OPEN SHELL)       Authors: W. Meyer, H.-J. Werner


 NUMBER OF ELECTRONS:      21+   20-    SPACE SYMMETRY=1    SPIN SYMMETRY: Doublet 
 CONVERGENCE THRESHOLDS:    1.00E-10 (Density)    1.00E-11 (Energy)
 MAX. NUMBER OF ITERATIONS:      200
 INTERPOLATION TYPE:            DIIS
 INTERPOLATION STEPS:              2 (START)      1 (STEP)
 LEVEL SHIFTS:                 -0.30 (CLOSED)  0.00 (OPEN) 



 Orbital guess generated from atomic densities. Full valence occupancy:   32

 Molecular orbital dump at record        2100.2

 ITERATION    DDIFF          GRAD             ENERGY        2-EL.EN.            DIPOLE MOMENTS         DIIS
    1      0.000D+00      0.000D+00      -267.17823785    555.810442    0.56951    0.04907   -0.75073    0
    2      0.000D+00      0.617D-02      -267.24890634    555.732123    0.41361   -0.13159   -0.59926    1
    3      0.927D-02      0.214D-02      -267.26107774    555.650146    0.39331   -0.05968   -0.62641    2
    4      0.336D-02      0.912D-03      -267.26468299    555.802259    0.37873   -0.09985   -0.64264    3
    5      0.186D-02      0.363D-03      -267.26525131    555.773553    0.38126   -0.09336   -0.63552    4
    6      0.792D-03      0.110D-03      -267.26532754    555.759792    0.37952   -0.09316   -0.63823    5
    7      0.277D-03      0.511D-04      -267.26534762    555.756776    0.37880   -0.09290   -0.63771    6
    8      0.143D-03      0.272D-04      -267.26535366    555.754826    0.37908   -0.09302   -0.63792    7
    9      0.922D-04      0.115D-04      -267.26535458    555.755139    0.37926   -0.09297   -0.63767    8
   10      0.366D-04      0.501D-05      -267.26535474    555.755751    0.37952   -0.09299   -0.63774    9
   11      0.146D-04      0.196D-05      -267.26535476    555.755594    0.37957   -0.09298   -0.63775    9
   12      0.650D-05      0.670D-06      -267.26535477    555.755728    0.37959   -0.09298   -0.63774    9
   13      0.227D-05      0.226D-06      -267.26535477    555.755644    0.37959   -0.09298   -0.63774    9
   14      0.631D-06      0.757D-07      -267.26535477    555.755653    0.37960   -0.09298   -0.63774    9
   15      0.192D-06      0.300D-07      -267.26535477    555.755649    0.37960   -0.09298   -0.63774    9
   16      0.823D-07      0.145D-07      -267.26535477    555.755650    0.37960   -0.09298   -0.63774    9
   17      0.373D-07      0.749D-08      -267.26535477    555.755650    0.37960   -0.09298   -0.63774    9
   18      0.222D-07      0.341D-08      -267.26535477    555.755650    0.37960   -0.09298   -0.63774    9
   19      0.114D-07      0.133D-08      -267.26535477    555.755650    0.37960   -0.09298   -0.63774    9
   20      0.443D-08      0.566D-09      -267.26535477    555.755650    0.37960   -0.09298   -0.63774    9
   21      0.165D-08      0.286D-09      -267.26535477    555.755650    0.37960   -0.09298   -0.63774    9
   22      0.752D-09      0.161D-09      -267.26535477    555.755650    0.37960   -0.09298   -0.63774    9
   23      0.445D-09      0.794D-10      -267.26535477    555.755650    0.37960   -0.09298   -0.63774    9
   24      0.263D-09      0.316D-10      -267.26535477    555.755650    0.37960   -0.09298   -0.63774    9
   25      0.929D-10      0.129D-10      -267.26535477    555.755650    0.37960   -0.09298   -0.63774    0

 Final alpha occupancy:  21
 Final beta  occupancy:  20

 !RHF STATE 1.1 Energy               -267.265354765544
 Nuclear energy                       183.21770151
 One-electron energy                 -728.36088146
 Two-electron energy                  277.87782519
 Virial quotient                       -1.00156248
 !RHF STATE 1.1 Dipole moment           0.37959769    -0.09298460    -0.63774024
 Dipole moment /Debye                   0.96477790    -0.23632779    -1.62086785

 Orbital energies:

         1.1          2.1          3.1          4.1          5.1          6.1          7.1          8.1          9.1         10.1
    -20.630481   -20.628828   -11.279274   -11.237980   -11.232180    -1.470122    -1.240670    -1.023175    -0.945279    -0.768415

        11.1         12.1         13.1         14.1         15.1         16.1         17.1         18.1         19.1         20.1
     -0.704516    -0.642948    -0.626734    -0.588836    -0.545143    -0.543255    -0.539018    -0.516802    -0.492992    -0.469784

        21.1         22.1         23.1
     -0.352369     0.181238     0.183501


 **********************************************************************************************************************************
 DATASETS  * FILE   NREC   LENGTH (MB)   RECORD NAMES
              1      18        3.17       500      610      700      900      950      970     1000      129      960     1100   
                                          VAR    BASINP    GEOM    SYMINP    ZMAT    AOBASIS   BASIS     P2S    ABASIS      S 
                                         1400     1410     1200     1210     1080     1600     1650     1700   
                                           T        V       H0       H01     AOSYM     SMH    MOLCAS    OPER   

              2       3        0.77       700     1000     2100   
                                         GEOM     BASIS     RHF  

 PROGRAMS   *        TOTAL       RHF       INT
 CPU TIMES  *         2.26      1.25      0.94
 REAL TIME  *         2.76 SEC
 DISK USED  *       331.27 MB      
 SF USED    *         0.04 MB      
 GA USED    *         0.00 MB       (max)       0.00 MB       (current)
 **********************************************************************************************************************************


1PROGRAM * CCSD (Unrestricted open-shell coupled cluster)     Authors: C. Hampel, H.-J. Werner, 1991, M. Deegan, P.J. Knowles, 1992


 Convergence thresholds:  THRVAR = 1.00D-08  THRDEN = 1.00D-10

 CCSD(T)     terms to be evaluated (factor= 1.000)


 Number of core orbitals:           5 (   5 )
 Number of closed-shell orbitals:  15 (  15 )
 Number of active  orbitals:        1 (   1 )
 Number of external orbitals:      84 (  84 )

 Memory could be reduced to 24.91 Mwords without degradation in triples

 Number of N-1 electron functions:              31
 Number of N-2 electron functions:             465
 Number of singly external CSFs:              2635
 Number of doubly external CSFs:           2537250
 Total number of CSFs:                     2539885

 Molecular orbitals read from record     2100.2  Type=RHF/CANONICAL (state 1.1)

 Integral transformation finished. Total CPU:   0.83 sec, npass=  1  Memory used:  12.63 MW

 Starting RMP2 calculation

 ITER.      SQ.NORM     CORR.ENERGY   TOTAL ENERGY   ENERGY CHANGE        DEN1      VAR(S)    VAR(P)  DIIS     TIME
   1      1.24306007    -0.78640676  -268.05176152    -0.78640676    -0.00305041  0.20D-04  0.11D-02  1  1     1.13
   2      1.24570217    -0.78969643  -268.05505120    -0.00328967    -0.00000474  0.54D-06  0.19D-05  2  2     1.39
   3      1.24576771    -0.78973849  -268.05509326    -0.00004206    -0.00000003  0.16D-07  0.68D-08  3  3     1.65
   4      1.24576866    -0.78973849  -268.05509326    -0.00000000    -0.00000000  0.27D-09  0.38D-10  4  4     1.94
   5      1.24576874    -0.78973853  -268.05509329    -0.00000003    -0.00000000  0.25D-11  0.65D-12  5  5     2.26
   6      1.24576876    -0.78973853  -268.05509330    -0.00000001    -0.00000000  0.28D-13  0.86D-14  6  6     2.59
   7      1.24576876    -0.78973853  -268.05509330     0.00000000    -0.00000000  0.47D-15  0.12D-15  6  1     2.93
   8      1.24576876    -0.78973853  -268.05509330     0.00000000    -0.00000000  0.59D-17  0.13D-17  6  2     3.26

 Norm of t1 vector:      0.03891648      S-energy:    -0.00227021      T1 diagnostic:  0.00055011
 Norm of t2 vector:      0.49422087      P-energy:    -0.78746832
                                         Alpha-Beta:  -0.59344375
                                         Alpha-Alpha: -0.10094214
                                         Beta-Beta:   -0.09308243

 Spin contamination <S**2-Sz**2-Sz>     0.00103952
  Reference energy                   -267.265354765544
  RHF-RMP2 correlation energy          -0.789738531034
 !RHF-RMP2 energy                    -268.055093296578

 Starting UCCSD calculation

 ITER.      SQ.NORM     CORR.ENERGY   TOTAL ENERGY   ENERGY CHANGE        DEN1      VAR(S)    VAR(P)  DIIS     TIME
   1      1.26283532    -0.80907366  -268.07442842    -0.80907366    -0.02516071  0.38D-02  0.59D-02  1  1     8.79
   2      1.29161801    -0.83648802  -268.10184279    -0.02741436    -0.00201180  0.22D-03  0.66D-03  2  2    14.35
   3      1.30156293    -0.84098798  -268.10634275    -0.00449996    -0.00032469  0.19D-03  0.56D-04  3  3    19.93
   4      1.30647696    -0.84246558  -268.10782034    -0.00147760    -0.00007207  0.43D-04  0.14D-04  4  4    25.53
   5      1.30920599    -0.84285366  -268.10820842    -0.00038808    -0.00002366  0.19D-04  0.32D-05  5  5    31.15
   6      1.31114381    -0.84305804  -268.10841280    -0.00020438    -0.00000645  0.42D-05  0.12D-05  6  6    36.79
   7      1.31209212    -0.84311676  -268.10847153    -0.00005872    -0.00000208  0.14D-05  0.37D-06  6  2    42.48
   8      1.31253313    -0.84315941  -268.10851418    -0.00004265    -0.00000065  0.45D-06  0.11D-06  6  1    48.17
   9      1.31271808    -0.84316399  -268.10851876    -0.00000458    -0.00000022  0.15D-06  0.35D-07  6  4    53.87
  10      1.31278121    -0.84316692  -268.10852169    -0.00000293    -0.00000005  0.35D-07  0.95D-08  6  3    59.56
  11      1.31281071    -0.84316566  -268.10852043     0.00000126    -0.00000002  0.13D-07  0.28D-08  6  5    65.55
  12      1.31282108    -0.84316540  -268.10852017     0.00000026    -0.00000000  0.26D-08  0.95D-09  6  6    71.29
  13      1.31281993    -0.84316448  -268.10851925     0.00000092    -0.00000000  0.96D-09  0.28D-09  6  2    77.50
  14      1.31281472    -0.84316364  -268.10851841     0.00000085    -0.00000000  0.21D-09  0.67D-10  6  1    83.78
  15      1.31281065    -0.84316305  -268.10851782     0.00000059    -0.00000000  0.78D-10  0.19D-10  6  4    90.05
  16      1.31280747    -0.84316267  -268.10851744     0.00000038    -0.00000000  0.28D-10  0.63D-11  6  3    96.33
  17      1.31280527    -0.84316243  -268.10851720     0.00000024    -0.00000000  0.10D-10  0.24D-11  6  5   102.26
  18      1.31280436    -0.84316237  -268.10851714     0.00000006    -0.00000000  0.41D-11  0.87D-12  6  6   108.00
  19      1.31280376    -0.84316234  -268.10851710     0.00000003    -0.00000000  0.16D-11  0.37D-12  6  2   113.75
  20      1.31280344    -0.84316233  -268.10851709     0.00000001    -0.00000000  0.60D-12  0.13D-12  6  1   119.49
  21      1.31280328    -0.84316232  -268.10851708     0.00000001    -0.00000000  0.28D-12  0.58D-13  6  4   125.22
  22      1.31280315    -0.84316231  -268.10851707     0.00000001    -0.00000000  0.74D-13  0.21D-13  6  3   130.97
  23      1.31280310    -0.84316230  -268.10851707     0.00000000    -0.00000000  0.21D-13  0.63D-14  6  5   136.72
  24      1.31280309    -0.84316231  -268.10851707    -0.00000000    -0.00000000  0.67D-14  0.22D-14  6  6   142.46
  25      1.31280309    -0.84316231  -268.10851707    -0.00000000    -0.00000000  0.21D-14  0.52D-15  6  2   148.22
  26      1.31280310    -0.84316231  -268.10851707    -0.00000000    -0.00000000  0.77D-15  0.15D-15  6  1   153.95
  27      1.31280311    -0.84316231  -268.10851707    -0.00000000    -0.00000000  0.20D-15  0.62D-16  6  3   159.67
  28      1.31280312    -0.84316231  -268.10851707    -0.00000000    -0.00000000  0.30D-16  0.11D-16  6  4   165.42
  29      1.31280312    -0.84316231  -268.10851707    -0.00000000    -0.00000000  0.70D-17  0.29D-17  6  5   171.16
  30      1.31280312    -0.84316231  -268.10851707    -0.00000000    -0.00000000  0.15D-17  0.54D-18  6  6   176.90
  31      1.31280312    -0.84316231  -268.10851707    -0.00000000    -0.00000000  0.35D-18  0.10D-18  6  2   182.65

 Norm of t1 vector:      0.13870100      S-energy:    -0.00281928      T1 diagnostic:  0.01616873
                                                                       D1 diagnostic:  0.06282931
 Norm of t2 vector:      0.54181653      P-energy:    -0.84034303
                                         Alpha-Beta:  -0.66489994
                                         Alpha-Alpha: -0.09147228
                                         Beta-Beta:   -0.08397081

 Spin contamination <S**2-Sz**2-Sz>     0.00216828

 Memory could be reduced to 28.85 Mwords without degradation in triples
 

 RESULTS
 =======

  Reference energy                   -267.265354765544
  UCCSD singles energy                 -0.002819277695
  UCCSD pair energy                    -0.840343030696
  UCCSD correlation energy             -0.843162308390
  Triples (T) contribution             -0.024979673287
  Total correlation energy             -0.868141981678
 
  RHF-UCCSD energy                   -268.108517073935
  RHF-UCCSD[T] energy                -268.134832969645
  RHF-UCCSD-T energy                 -268.133075074774
 !RHF-UCCSD(T) energy                -268.133496747222

 Program statistics:

 Available memory in ccsd:               999997692
 Min. memory needed in ccsd:               7337057
 Max. memory used in ccsd:                10523002
 Max. memory used in cckext:              10867977 (31 integral passes)
 Max. memory used in cckint:              12633073 ( 1 integral passes)



 **********************************************************************************************************************************
 DATASETS  * FILE   NREC   LENGTH (MB)   RECORD NAMES
              1      18        3.17       500      610      700      900      950      970     1000      129      960     1100   
                                          VAR    BASINP    GEOM    SYMINP    ZMAT    AOBASIS   BASIS     P2S    ABASIS      S 
                                         1400     1410     1200     1210     1080     1600     1650     1700   
                                           T        V       H0       H01     AOSYM     SMH    MOLCAS    OPER   

              2       3        0.77       700     1000     2100   
                                         GEOM     BASIS     RHF  

 PROGRAMS   *        TOTAL  UCCSD(T)       RHF       INT
 CPU TIMES  *       224.40    222.13      1.25      0.94
 REAL TIME  *       233.11 SEC
 DISK USED  *         1.30 GB      
 SF USED    *       553.73 MB      
 GA USED    *         0.00 MB       (max)       0.00 MB       (current)
 **********************************************************************************************************************************

        UCCSD(T)        RHF-SCF 
   -268.13349675   -267.26535477
 **********************************************************************************************************************************
 Variable memory released
