
 Primary working directories    : /tmp/320938.216.gen4.q
 Secondary working directories  : /tmp/320938.216.gen4.q
 Wavefunction directory         : /home/vulcan/mel64643/wfu/
 Main file repository           : /tmp/320938.216.gen4.q/

 ARCHNAME  : Linux/x86_64
 FC        : /opt/intel/compilers_and_libraries_2016.1.150/linux/bin/intel64/ifort
 FCVERSION : 16.0.1
 BLASLIB   : -mkl
 id        : ccgc

 Nodes     nprocs
 n064         3
 Number of processes for MPI-2 version of Molpro:   nprocs(total)=    4   nprocs(compute)=    3   nprocs(helper)=    1
 ga_uses_ma=false, calling ma_init with nominal heap.
 GA-space will be limited to   8.0 MW (determined by -G option)

 Using customized tuning parameters: mindgm=10; mindgv=16; mindgc=4; mindgr=1; noblas=0; mincuda=1000; minvec=7
 default implementation of scratch files=sf  

 ***,Frequencies for min3
 memory,1000,m
 gthresh,energy=1.0d-10,orbital=1.0d-10,oneint=1.0d-16,twoint=1.0d-16,optgrad=1.0d-6,compress=1.0d-13
 geomtyp=xyz
 
  geometry = {
  12
  arbitrary comment
     C    1.776964391707    0.711398808326   -0.047331391796
     C    0.491811976407   -0.059992870174   -0.196493901896
     C    0.450332819107   -1.536294019674    0.101417522804
     O   -0.560767745493    0.727234937526    0.254453964104
     O   -1.837840335593    0.092269037726   -0.120531795196
     H    2.585373063107    0.211465914126   -0.611440883996
     H    1.660426393907    1.742887987326   -0.426532369096
     H    2.097119204326    0.774552271997    1.018306783219
     H   -0.505104555209   -1.980741313199   -0.220427740908
     H    1.281841838059   -2.047397139857   -0.417052194410
     H    0.561169258424   -1.719906374970    1.194709361968
     H   -1.989141594164    0.549226659260   -0.967380031047
  }
 
 basis=cc-pvdz
 {rhf;maxit,200}
 {uccsd(t);maxit,200}

 Variables initialized (661), CPU time= 0.00 sec
 Commands  initialized (458), CPU time= 0.01 sec, 486 directives.
 Default parameters read. Elapsed time= 0.07 sec

 Checking input...
 Passed
1


                                         ***  PROGRAM SYSTEM MOLPRO  ***
                         Copyright, University College Cardiff Consultants Limited, 2008

                                    Version 2010.1 linked May 16 2016 07:17:05


 **********************************************************************************************************************************
 LABEL *   Frequencies for min3                                                          
 Linux-4.4.3/n064(x86_64) 64 bit mpp version                                             DATE: 07-Mar-20          TIME: 02:13:19  
 **********************************************************************************************************************************

 SHA1:             9e8077add272b0f3cad6f7df79ec5211205f459d
 **********************************************************************************************************************************

 THRESHOLDS:

 ZERO    =  1.00D-12  ONEINT  =  1.00D-16  TWOINT  =  1.00D-16  PREFAC  =  1.00D-14  LOCALI  =  1.00D-09  EORDER  =  1.00D-04
 ENERGY  =  1.00D-10  ETEST   =  0.00D+00  EDENS   =  0.00D+00  THRDEDEF=  1.00D-06  GRADIENT=  1.00D-02  STEP    =  1.00D-03
 ORBITAL =  1.00D-10  CIVEC   =  1.00D-05  COEFF   =  1.00D-04  PRINTCI =  5.00D-02  PUNCHCI =  9.90D+01  OPTGRAD =  1.00D-06
 OPTENERG=  1.00D-06  OPTSTEP =  3.00D-04  THRGRAD =  1.00D-10  COMPRESS=  1.00D-13  VARMIN  =  1.00D-07  VARMAX  =  1.00D-03
 THRDOUB =  0.00D+00  THRDIV  =  1.00D-05  THRRED  =  1.00D-07  THRPSP  =  1.00D+00  THRDC   =  1.00D-10  THRCS   =  1.00D-10
 THRNRM  =  1.00D-08  THREQ   =  0.00D+00  THRDE   =  1.00D+00  THRREF  =  1.00D-05  SPARFAC =  1.00D+00  THRDLP  =  1.00D-07
 THRDIA  =  1.00D-10  THRDLS  =  1.00D-07  THRGPS  =  0.00D+00  THRKEX  =  0.00D+00  THRDIS  =  2.00D-01  THRVAR  =  1.00D-10
 THRLOC  =  1.00D-06  THRGAP  =  1.00D-06  THRLOCT = -1.00D+00  THRGAPT = -1.00D+00  THRORB  =  1.00D-06  THRMLTP =  0.00D+00
 THRCPQCI=  1.00D-10  KEXTA   =  0.00D+00  THRCOARS=  0.00D+00  SYMTOL  =  1.00D-06  GRADTOL =  1.00D-06  THROVL  =  1.00D-08
 THRORTH =  1.00D-08  GRID    =  1.00D-06  GRIDMAX =  1.00D-03  DTMAX   =  0.00D+00

 SETTING GEOMTYP        =    XYZ

 Variable memory set to 1000000000 words,  buffer space   230000 words

 SETTING BASIS          =    CC-PVDZ


 Recomputing integrals since basis changed


 Using spherical harmonics

 Library entry C      S cc-pVDZ              selected for orbital group  1
 Library entry C      P cc-pVDZ              selected for orbital group  1
 Library entry C      D cc-pVDZ              selected for orbital group  1
 Library entry O      S cc-pVDZ              selected for orbital group  2
 Library entry O      P cc-pVDZ              selected for orbital group  2
 Library entry O      D cc-pVDZ              selected for orbital group  2
 Library entry H      S cc-pVDZ              selected for orbital group  3
 Library entry H      P cc-pVDZ              selected for orbital group  3

1PROGRAM * SEWARD (Integral evaluation for generally contracted gaussian basis sets)     Author: Roland Lindh, 1990

 Geometry written to block  1 of record 700


 Point group  C1  



 ATOMIC COORDINATES

 NR  ATOM    CHARGE       X              Y              Z

   1  C       6.00    3.357976046    1.344348918   -0.089443368
   2  C       6.00    0.929389944   -0.113370094   -0.371319661
   3  C       6.00    0.851005696   -2.903174955    0.191651343
   4  O       8.00   -1.059697462    1.374274865    0.480848305
   5  O       8.00   -3.473014908    0.174363212   -0.227772083
   6  H       1.00    4.885647037    0.399612664   -1.155455816
   7  H       1.00    3.137751146    3.293580974   -0.806029364
   8  H       1.00    3.962980961    1.463691669    1.924320938
   9  H       1.00   -0.954509277   -3.743058619   -0.416548062
  10  H       1.00    2.422330018   -3.869019877   -0.788114430
  11  H       1.00    1.060456212   -3.250152020    2.257673501
  12  H       1.00   -3.758932850    1.037887970   -1.828083324

 Bond lengths in Bohr (Angstrom)

 1-2  2.846476668  1-6  2.088704811  1-7  2.088420481  1-8  2.106067501  2-3  2.847119878
     ( 1.506290578)     ( 1.105294982)     ( 1.105144521)     ( 1.114482922)     ( 1.506630951)

  2- 4  2.625975338   3- 9  2.082113207   3-10  2.088506047   3-11  2.105400237   4- 5  2.786760112
       ( 1.389606300)       ( 1.101806855)       ( 1.105189801)       ( 1.114129821)       ( 1.474689938)

  5-12  1.840766184
       ( 0.974091512)

 Bond angles

  1-2-3  120.37866573   1-2-4  108.90555081   2-1-6  109.98947225   2-1-7  110.73429490

  2- 1- 8  111.64161223   2- 3- 9  111.18462696   2- 3-10  109.85694525   2- 3-11  110.65757583

  2- 4- 5  109.23946113   3- 2- 4  118.03986083   4- 5-12   98.83490066   6- 1- 7  108.91518355

  6- 1- 8  107.66950754   7- 1- 8  107.78754214   9- 3-10  109.19833503   9- 3-11  107.84432057

 10- 3-11  108.01624627

 NUCLEAR CHARGE:                   41
 NUMBER OF PRIMITIVE AOS:         184
 NUMBER OF SYMMETRY AOS:          179
 NUMBER OF CONTRACTIONS:          105   ( 105A   )
 NUMBER OF CORE ORBITALS:           5   (   5A   )
 NUMBER OF VALENCE ORBITALS:       27   (  27A   )


 NUCLEAR REPULSION ENERGY  183.21927995


 Eigenvalues of metric

         1 0.345E-02 0.435E-02 0.105E-01 0.141E-01 0.182E-01 0.214E-01 0.331E-01 0.346E-01


 Contracted 2-electron integrals neglected if value below      1.0D-16
 AO integral compression algorithm  1   Integral accuracy      1.0D-16

     127.664 MB (compressed) written to integral file ( 93.2%)

     Node minimum: 41.681 MB, node maximum: 44.302 MB


 NUMBER OF SORTED TWO-ELECTRON INTEGRALS:    5164320.     BUFFER LENGTH:  32768
 NUMBER OF SEGMENTS:   1  SEGMENT LENGTH:    5164320      RECORD LENGTH: 524288

 Memory used in sort:       5.72 MW

 SORT1 READ    17075413. AND WROTE     5135863. INTEGRALS IN     15 RECORDS. CPU TIME:     0.21 SEC, REAL TIME:     0.25 SEC
 SORT2 READ    15396513. AND WROTE    15487395. INTEGRALS IN    477 RECORDS. CPU TIME:     0.07 SEC, REAL TIME:     0.11 SEC

 Node minimum:     5160610.  Node maximum:     5164320. integrals

 OPERATOR DM      FOR CENTER  0  COORDINATES:    0.000000    0.000000    0.000000


 **********************************************************************************************************************************
 DATASETS  * FILE   NREC   LENGTH (MB)   RECORD NAMES
              1      18        3.17       500      610      700      900      950      970     1000      129      960     1100   
                                          VAR    BASINP    GEOM    SYMINP    ZMAT    AOBASIS   BASIS     P2S    ABASIS      S 
                                         1400     1410     1200     1210     1080     1600     1650     1700   
                                           T        V       H0       H01     AOSYM     SMH    MOLCAS    OPER   

 PROGRAMS   *        TOTAL       INT
 CPU TIMES  *         0.97      0.89
 REAL TIME  *         1.40 SEC
 DISK USED  *       305.70 MB      
 GA USED    *         0.00 MB       (max)       0.00 MB       (current)
 **********************************************************************************************************************************

1PROGRAM * RHF-SCF (OPEN SHELL)       Authors: W. Meyer, H.-J. Werner


 NUMBER OF ELECTRONS:      21+   20-    SPACE SYMMETRY=1    SPIN SYMMETRY: Doublet 
 CONVERGENCE THRESHOLDS:    1.00E-10 (Density)    1.00E-11 (Energy)
 MAX. NUMBER OF ITERATIONS:      200
 INTERPOLATION TYPE:            DIIS
 INTERPOLATION STEPS:              2 (START)      1 (STEP)
 LEVEL SHIFTS:                 -0.30 (CLOSED)  0.00 (OPEN) 



 Orbital guess generated from atomic densities. Full valence occupancy:   32

 Molecular orbital dump at record        2100.2

 ITERATION    DDIFF          GRAD             ENERGY        2-EL.EN.            DIPOLE MOMENTS         DIIS
    1      0.000D+00      0.000D+00      -267.17824175    555.810958    0.57006    0.04877   -0.74951    0
    2      0.000D+00      0.617D-02      -267.24892584    555.732659    0.41368   -0.13183   -0.59909    1
    3      0.927D-02      0.214D-02      -267.26110552    555.650519    0.39325   -0.05999   -0.62657    2
    4      0.336D-02      0.912D-03      -267.26471493    555.802858    0.37859   -0.10017   -0.64304    3
    5      0.186D-02      0.363D-03      -267.26528398    555.774264    0.38110   -0.09372   -0.63605    4
    6      0.792D-03      0.110D-03      -267.26536033    555.760525    0.37935   -0.09353   -0.63880    5
    7      0.277D-03      0.510D-04      -267.26538043    555.757525    0.37863   -0.09328   -0.63830    6
    8      0.144D-03      0.272D-04      -267.26538646    555.755584    0.37890   -0.09340   -0.63851    7
    9      0.922D-04      0.115D-04      -267.26538738    555.755896    0.37909   -0.09335   -0.63827    8
   10      0.365D-04      0.501D-05      -267.26538754    555.756507    0.37934   -0.09337   -0.63833    9
   11      0.147D-04      0.197D-05      -267.26538756    555.756349    0.37940   -0.09336   -0.63834    9
   12      0.651D-05      0.671D-06      -267.26538757    555.756483    0.37942   -0.09336   -0.63833    9
   13      0.227D-05      0.226D-06      -267.26538757    555.756399    0.37942   -0.09336   -0.63833    9
   14      0.632D-06      0.757D-07      -267.26538757    555.756408    0.37942   -0.09336   -0.63833    9
   15      0.192D-06      0.299D-07      -267.26538757    555.756404    0.37942   -0.09336   -0.63833    9
   16      0.822D-07      0.144D-07      -267.26538757    555.756405    0.37942   -0.09336   -0.63833    9
   17      0.372D-07      0.745D-08      -267.26538757    555.756405    0.37942   -0.09336   -0.63833    9
   18      0.220D-07      0.340D-08      -267.26538757    555.756405    0.37942   -0.09336   -0.63833    9
   19      0.114D-07      0.133D-08      -267.26538757    555.756405    0.37942   -0.09336   -0.63833    9
   20      0.443D-08      0.564D-09      -267.26538757    555.756405    0.37942   -0.09336   -0.63833    9
   21      0.165D-08      0.285D-09      -267.26538757    555.756405    0.37942   -0.09336   -0.63833    9
   22      0.749D-09      0.161D-09      -267.26538757    555.756405    0.37942   -0.09336   -0.63833    9
   23      0.443D-09      0.793D-10      -267.26538757    555.756405    0.37942   -0.09336   -0.63833    9
   24      0.262D-09      0.316D-10      -267.26538757    555.756405    0.37942   -0.09336   -0.63833    9
   25      0.929D-10      0.129D-10      -267.26538757    555.756405    0.37942   -0.09336   -0.63833    0

 Final alpha occupancy:  21
 Final beta  occupancy:  20

 !RHF STATE 1.1 Energy               -267.265387567597
 Nuclear energy                       183.21927995
 One-electron energy                 -728.36287014
 Two-electron energy                  277.87820262
 Virial quotient                       -1.00155808
 !RHF STATE 1.1 Dipole moment           0.37942024    -0.09336315    -0.63833122
 Dipole moment /Debye                   0.96432689    -0.23728992    -1.62236985

 Orbital energies:

         1.1          2.1          3.1          4.1          5.1          6.1          7.1          8.1          9.1         10.1
    -20.630542   -20.628774   -11.279312   -11.237988   -11.232132    -1.470166    -1.240815    -1.023199    -0.945319    -0.768529

        11.1         12.1         13.1         14.1         15.1         16.1         17.1         18.1         19.1         20.1
     -0.704604    -0.643062    -0.626722    -0.588669    -0.545212    -0.543474    -0.538793    -0.516946    -0.493055    -0.469725

        21.1         22.1         23.1
     -0.352383     0.181294     0.183488


 **********************************************************************************************************************************
 DATASETS  * FILE   NREC   LENGTH (MB)   RECORD NAMES
              1      18        3.17       500      610      700      900      950      970     1000      129      960     1100   
                                          VAR    BASINP    GEOM    SYMINP    ZMAT    AOBASIS   BASIS     P2S    ABASIS      S 
                                         1400     1410     1200     1210     1080     1600     1650     1700   
                                           T        V       H0       H01     AOSYM     SMH    MOLCAS    OPER   

              2       3        0.77       700     1000     2100   
                                         GEOM     BASIS     RHF  

 PROGRAMS   *        TOTAL       RHF       INT
 CPU TIMES  *         2.07      1.10      0.89
 REAL TIME  *         2.65 SEC
 DISK USED  *       322.26 MB      
 SF USED    *         0.04 MB      
 GA USED    *         0.00 MB       (max)       0.00 MB       (current)
 **********************************************************************************************************************************


1PROGRAM * CCSD (Unrestricted open-shell coupled cluster)     Authors: C. Hampel, H.-J. Werner, 1991, M. Deegan, P.J. Knowles, 1992


 Convergence thresholds:  THRVAR = 1.00D-08  THRDEN = 1.00D-10

 CCSD(T)     terms to be evaluated (factor= 1.000)


 Number of core orbitals:           5 (   5 )
 Number of closed-shell orbitals:  15 (  15 )
 Number of active  orbitals:        1 (   1 )
 Number of external orbitals:      84 (  84 )

 Memory could be reduced to 24.91 Mwords without degradation in triples

 Number of N-1 electron functions:              31
 Number of N-2 electron functions:             465
 Number of singly external CSFs:              2635
 Number of doubly external CSFs:           2537250
 Total number of CSFs:                     2539885

 Molecular orbitals read from record     2100.2  Type=RHF/CANONICAL (state 1.1)

 Integral transformation finished. Total CPU:   0.94 sec, npass=  1  Memory used:  12.63 MW

 Starting RMP2 calculation

 ITER.      SQ.NORM     CORR.ENERGY   TOTAL ENERGY   ENERGY CHANGE        DEN1      VAR(S)    VAR(P)  DIIS     TIME
   1      1.24303359    -0.78636878  -268.05175635    -0.78636878    -0.00305009  0.20D-04  0.11D-02  1  1     1.26
   2      1.24567546    -0.78965813  -268.05504569    -0.00328934    -0.00000475  0.54D-06  0.19D-05  2  2     1.57
   3      1.24574105    -0.78970022  -268.05508779    -0.00004209    -0.00000003  0.16D-07  0.68D-08  3  3     1.90
   4      1.24574201    -0.78970022  -268.05508779    -0.00000000    -0.00000000  0.27D-09  0.38D-10  4  4     2.26
   5      1.24574209    -0.78970025  -268.05508782    -0.00000003    -0.00000000  0.25D-11  0.65D-12  5  5     2.65
   6      1.24574211    -0.78970026  -268.05508783    -0.00000001    -0.00000000  0.28D-13  0.87D-14  6  6     3.07
   7      1.24574211    -0.78970026  -268.05508783     0.00000000    -0.00000000  0.47D-15  0.12D-15  6  1     3.48
   8      1.24574211    -0.78970026  -268.05508783     0.00000000    -0.00000000  0.60D-17  0.13D-17  6  2     3.90

 Norm of t1 vector:      0.03893184      S-energy:    -0.00227122      T1 diagnostic:  0.00055062
 Norm of t2 vector:      0.49419269      P-energy:    -0.78742904
                                         Alpha-Beta:  -0.59341309
                                         Alpha-Alpha: -0.10093857
                                         Beta-Beta:   -0.09307739

 Spin contamination <S**2-Sz**2-Sz>     0.00104042
  Reference energy                   -267.265387567597
  RHF-RMP2 correlation energy          -0.789700258592
 !RHF-RMP2 energy                    -268.055087826190

 Starting UCCSD calculation

 ITER.      SQ.NORM     CORR.ENERGY   TOTAL ENERGY   ENERGY CHANGE        DEN1      VAR(S)    VAR(P)  DIIS     TIME
   1      1.26281405    -0.80904534  -268.07443291    -0.80904534    -0.02515744  0.38D-02  0.59D-02  1  1     9.26
   2      1.29159474    -0.83645675  -268.10184432    -0.02741141    -0.00201152  0.22D-03  0.66D-03  2  2    14.62
   3      1.30154029    -0.84095587  -268.10634343    -0.00449912    -0.00032481  0.19D-03  0.56D-04  3  3    20.02
   4      1.30645656    -0.84243361  -268.10782118    -0.00147774    -0.00007214  0.43D-04  0.14D-04  4  4    25.44
   5      1.30918903    -0.84282209  -268.10820966    -0.00038849    -0.00002368  0.19D-04  0.32D-05  5  5    30.89
   6      1.31112953    -0.84302670  -268.10841427    -0.00020461    -0.00000646  0.42D-05  0.12D-05  6  6    36.35
   7      1.31207909    -0.84308551  -268.10847308    -0.00005881    -0.00000208  0.14D-05  0.37D-06  6  2    41.82
   8      1.31252066    -0.84312819  -268.10851576    -0.00004268    -0.00000065  0.45D-06  0.11D-06  6  1    47.28
   9      1.31270592    -0.84313277  -268.10852034    -0.00000458    -0.00000022  0.15D-06  0.35D-07  6  4    52.74
  10      1.31276913    -0.84313570  -268.10852327    -0.00000293    -0.00000005  0.35D-07  0.95D-08  6  3    58.21
  11      1.31279861    -0.84313444  -268.10852201     0.00000126    -0.00000002  0.13D-07  0.28D-08  6  5    63.64
  12      1.31280899    -0.84313418  -268.10852175     0.00000026    -0.00000000  0.26D-08  0.95D-09  6  6    69.19
  13      1.31280785    -0.84313326  -268.10852083     0.00000092    -0.00000000  0.96D-09  0.29D-09  6  2    74.68
  14      1.31280264    -0.84313242  -268.10851999     0.00000084    -0.00000000  0.21D-09  0.68D-10  6  1    80.16
  15      1.31279857    -0.84313183  -268.10851940     0.00000059    -0.00000000  0.78D-10  0.19D-10  6  4    85.63
  16      1.31279538    -0.84313145  -268.10851902     0.00000038    -0.00000000  0.28D-10  0.63D-11  6  3    91.10
  17      1.31279318    -0.84313121  -268.10851878     0.00000024    -0.00000000  0.10D-10  0.24D-11  6  5    96.58
  18      1.31279227    -0.84313115  -268.10851872     0.00000006    -0.00000000  0.41D-11  0.87D-12  6  6   102.04
  19      1.31279166    -0.84313112  -268.10851868     0.00000003    -0.00000000  0.16D-11  0.37D-12  6  2   107.48
  20      1.31279134    -0.84313110  -268.10851867     0.00000001    -0.00000000  0.60D-12  0.13D-12  6  1   112.98
  21      1.31279118    -0.84313109  -268.10851866     0.00000001    -0.00000000  0.28D-12  0.58D-13  6  4   118.45
  22      1.31279106    -0.84313108  -268.10851865     0.00000001    -0.00000000  0.74D-13  0.21D-13  6  3   123.90
  23      1.31279100    -0.84313108  -268.10851865     0.00000000    -0.00000000  0.21D-13  0.63D-14  6  5   129.27
  24      1.31279099    -0.84313108  -268.10851865    -0.00000000    -0.00000000  0.68D-14  0.23D-14  6  6   134.75
  25      1.31279100    -0.84313108  -268.10851865    -0.00000000    -0.00000000  0.21D-14  0.53D-15  6  2   140.20
  26      1.31279100    -0.84313108  -268.10851865    -0.00000000    -0.00000000  0.77D-15  0.15D-15  6  1   145.67
  27      1.31279101    -0.84313109  -268.10851865    -0.00000000    -0.00000000  0.20D-15  0.63D-16  6  3   151.24
  28      1.31279102    -0.84313109  -268.10851865    -0.00000000    -0.00000000  0.30D-16  0.11D-16  6  4   156.72
  29      1.31279102    -0.84313109  -268.10851865    -0.00000000    -0.00000000  0.71D-17  0.29D-17  6  5   162.20
  30      1.31279102    -0.84313109  -268.10851865    -0.00000000    -0.00000000  0.15D-17  0.54D-18  6  6   167.67
  31      1.31279102    -0.84313109  -268.10851865    -0.00000000    -0.00000000  0.35D-18  0.10D-18  6  2   173.11

 Norm of t1 vector:      0.13874704      S-energy:    -0.00282100      T1 diagnostic:  0.01617298
                                                                       D1 diagnostic:  0.06283913
 Norm of t2 vector:      0.54179358      P-energy:    -0.84031009
                                         Alpha-Beta:  -0.66486817
                                         Alpha-Alpha: -0.09147201
                                         Beta-Beta:   -0.08396991

 Spin contamination <S**2-Sz**2-Sz>     0.00217248

 Memory could be reduced to 28.85 Mwords without degradation in triples
 

 RESULTS
 =======

  Reference energy                   -267.265387567597
  UCCSD singles energy                 -0.002820996519
  UCCSD pair energy                    -0.840310089483
  UCCSD correlation energy             -0.843131086002
  Triples (T) contribution             -0.024977201255
  Total correlation energy             -0.868108287257
 
  RHF-UCCSD energy                   -268.108518653599
  RHF-UCCSD[T] energy                -268.134831961596
  RHF-UCCSD-T energy                 -268.133074331072
 !RHF-UCCSD(T) energy                -268.133495854854

 Program statistics:

 Available memory in ccsd:               999997692
 Min. memory needed in ccsd:               7337057
 Max. memory used in ccsd:                10523002
 Max. memory used in cckext:              10867977 (31 integral passes)
 Max. memory used in cckint:              12633073 ( 1 integral passes)



 **********************************************************************************************************************************
 DATASETS  * FILE   NREC   LENGTH (MB)   RECORD NAMES
              1      18        3.17       500      610      700      900      950      970     1000      129      960     1100   
                                          VAR    BASINP    GEOM    SYMINP    ZMAT    AOBASIS   BASIS     P2S    ABASIS      S 
                                         1400     1410     1200     1210     1080     1600     1650     1700   
                                           T        V       H0       H01     AOSYM     SMH    MOLCAS    OPER   

              2       3        0.77       700     1000     2100   
                                         GEOM     BASIS     RHF  

 PROGRAMS   *        TOTAL  UCCSD(T)       RHF       INT
 CPU TIMES  *       221.36    219.29      1.10      0.89
 REAL TIME  *       234.86 SEC
 DISK USED  *         1.29 GB      
 SF USED    *       553.73 MB      
 GA USED    *         0.00 MB       (max)       0.00 MB       (current)
 **********************************************************************************************************************************

        UCCSD(T)        RHF-SCF 
   -268.13349585   -267.26538757
 **********************************************************************************************************************************
 Variable memory released
