
 Primary working directories    : /tmp/320938.100.gen4.q
 Secondary working directories  : /tmp/320938.100.gen4.q
 Wavefunction directory         : /home/vulcan/mel64643/wfu/
 Main file repository           : /tmp/320938.100.gen4.q/

 ARCHNAME  : Linux/x86_64
 FC        : /opt/intel/compilers_and_libraries_2016.1.150/linux/bin/intel64/ifort
 FCVERSION : 16.0.1
 BLASLIB   : -mkl
 id        : ccgc

 Nodes     nprocs
 n034         3
 Number of processes for MPI-2 version of Molpro:   nprocs(total)=    4   nprocs(compute)=    3   nprocs(helper)=    1
 ga_uses_ma=false, calling ma_init with nominal heap.
 GA-space will be limited to   8.0 MW (determined by -G option)

 Using customized tuning parameters: mindgm=10; mindgv=16; mindgc=4; mindgr=1; noblas=0; mincuda=1000; minvec=7
 default implementation of scratch files=sf  

 ***,Frequencies for min3
 memory,1000,m
 gthresh,energy=1.0d-10,orbital=1.0d-10,oneint=1.0d-16,twoint=1.0d-16,optgrad=1.0d-6,compress=1.0d-13
 geomtyp=xyz
 
  geometry = {
  12
  arbitrary comment
     C    1.776964391707    0.711398808326   -0.047331391796
     C    0.491811976407   -0.059992870174   -0.196493901896
     C    0.450332819107   -1.536294019674    0.101417522804
     O   -0.560767745493    0.727234937526    0.254453964104
     O   -1.837840335593    0.092269037726   -0.120531795196
     H    2.585373063107    0.211465914126   -0.611440883996
     H    1.660426393907    1.742887987326   -0.428384098371
     H    2.094756670530    0.773818177314    1.019185751376
     H   -0.504681960287   -1.982699714529   -0.220399496899
     H    1.280426131878   -2.045568900661   -0.416850603095
     H    0.562443742422   -1.720255107342    1.194736605385
     H   -1.987060433108    0.550439648447   -0.966664348671
  }
 
 basis=cc-pvdz
 {rhf;maxit,200}
 {uccsd(t);maxit,200}

 Variables initialized (661), CPU time= 0.01 sec
 Commands  initialized (458), CPU time= 0.00 sec, 486 directives.
 Default parameters read. Elapsed time= 0.07 sec

 Checking input...
 Passed
1


                                         ***  PROGRAM SYSTEM MOLPRO  ***
                         Copyright, University College Cardiff Consultants Limited, 2008

                                    Version 2010.1 linked May 16 2016 07:17:05


 **********************************************************************************************************************************
 LABEL *   Frequencies for min3                                                          
 Linux-4.4.3/n034(x86_64) 64 bit mpp version                                             DATE: 07-Mar-20          TIME: 01:32:05  
 **********************************************************************************************************************************

 SHA1:             9e8077add272b0f3cad6f7df79ec5211205f459d
 **********************************************************************************************************************************

 THRESHOLDS:

 ZERO    =  1.00D-12  ONEINT  =  1.00D-16  TWOINT  =  1.00D-16  PREFAC  =  1.00D-14  LOCALI  =  1.00D-09  EORDER  =  1.00D-04
 ENERGY  =  1.00D-10  ETEST   =  0.00D+00  EDENS   =  0.00D+00  THRDEDEF=  1.00D-06  GRADIENT=  1.00D-02  STEP    =  1.00D-03
 ORBITAL =  1.00D-10  CIVEC   =  1.00D-05  COEFF   =  1.00D-04  PRINTCI =  5.00D-02  PUNCHCI =  9.90D+01  OPTGRAD =  1.00D-06
 OPTENERG=  1.00D-06  OPTSTEP =  3.00D-04  THRGRAD =  1.00D-10  COMPRESS=  1.00D-13  VARMIN  =  1.00D-07  VARMAX  =  1.00D-03
 THRDOUB =  0.00D+00  THRDIV  =  1.00D-05  THRRED  =  1.00D-07  THRPSP  =  1.00D+00  THRDC   =  1.00D-10  THRCS   =  1.00D-10
 THRNRM  =  1.00D-08  THREQ   =  0.00D+00  THRDE   =  1.00D+00  THRREF  =  1.00D-05  SPARFAC =  1.00D+00  THRDLP  =  1.00D-07
 THRDIA  =  1.00D-10  THRDLS  =  1.00D-07  THRGPS  =  0.00D+00  THRKEX  =  0.00D+00  THRDIS  =  2.00D-01  THRVAR  =  1.00D-10
 THRLOC  =  1.00D-06  THRGAP  =  1.00D-06  THRLOCT = -1.00D+00  THRGAPT = -1.00D+00  THRORB  =  1.00D-06  THRMLTP =  0.00D+00
 THRCPQCI=  1.00D-10  KEXTA   =  0.00D+00  THRCOARS=  0.00D+00  SYMTOL  =  1.00D-06  GRADTOL =  1.00D-06  THROVL  =  1.00D-08
 THRORTH =  1.00D-08  GRID    =  1.00D-06  GRIDMAX =  1.00D-03  DTMAX   =  0.00D+00

 SETTING GEOMTYP        =    XYZ

 Variable memory set to 1000000000 words,  buffer space   230000 words

 SETTING BASIS          =    CC-PVDZ


 Recomputing integrals since basis changed


 Using spherical harmonics

 Library entry C      S cc-pVDZ              selected for orbital group  1
 Library entry C      P cc-pVDZ              selected for orbital group  1
 Library entry C      D cc-pVDZ              selected for orbital group  1
 Library entry O      S cc-pVDZ              selected for orbital group  2
 Library entry O      P cc-pVDZ              selected for orbital group  2
 Library entry O      D cc-pVDZ              selected for orbital group  2
 Library entry H      S cc-pVDZ              selected for orbital group  3
 Library entry H      P cc-pVDZ              selected for orbital group  3

1PROGRAM * SEWARD (Integral evaluation for generally contracted gaussian basis sets)     Author: Roland Lindh, 1990

 Geometry written to block  1 of record 700


 Point group  C1  



 ATOMIC COORDINATES

 NR  ATOM    CHARGE       X              Y              Z

   1  C       6.00    3.357976046    1.344348918   -0.089443368
   2  C       6.00    0.929389944   -0.113370094   -0.371319661
   3  C       6.00    0.851005696   -2.903174955    0.191651343
   4  O       8.00   -1.059697462    1.374274865    0.480848305
   5  O       8.00   -3.473014908    0.174363212   -0.227772083
   6  H       1.00    4.885647037    0.399612664   -1.155455816
   7  H       1.00    3.137751146    3.293580974   -0.809528625
   8  H       1.00    3.958516419    1.462304431    1.925981947
   9  H       1.00   -0.953710688   -3.746759461   -0.416494689
  10  H       1.00    2.419654721   -3.865565005   -0.787733478
  11  H       1.00    1.062864638   -3.250811029    2.257724983
  12  H       1.00   -3.755000025    1.040180187   -1.826730880

 Bond lengths in Bohr (Angstrom)

 1-2  2.846476668  1-6  2.088704811  1-7  2.089623744  1-8  2.106300416  2-3  2.847119878
     ( 1.506290578)     ( 1.105294982)     ( 1.105781261)     ( 1.114606176)     ( 1.506630951)

  2- 4  2.625975338   3- 9  2.082901257   3-10  2.084717966   3-11  2.105800403   4- 5  2.786760112
       ( 1.389606300)       ( 1.102223874)       ( 1.103185235)       ( 1.114341580)       ( 1.474689938)

  5-12  1.840060835
       ( 0.973718257)

 Bond angles

  1-2-3  120.37866573   1-2-4  108.90555081   2-1-6  109.98947225   2-1-7  110.71164793

  2- 1- 8  111.51170630   2- 3- 9  111.28290295   2- 3-10  109.79998508   2- 3-11  110.67061630

  2- 4- 5  109.23946113   3- 2- 4  118.03986083   4- 5-12   98.68908159   6- 1- 7  108.85212611

  6- 1- 8  107.76702653   7- 1- 8  107.91118350   9- 3-10  109.13679165   9- 3-11  107.86485725

 10- 3-11  108.00003781

 NUCLEAR CHARGE:                   41
 NUMBER OF PRIMITIVE AOS:         184
 NUMBER OF SYMMETRY AOS:          179
 NUMBER OF CONTRACTIONS:          105   ( 105A   )
 NUMBER OF CORE ORBITALS:           5   (   5A   )
 NUMBER OF VALENCE ORBITALS:       27   (  27A   )


 NUCLEAR REPULSION ENERGY  183.22881424


 Eigenvalues of metric

         1 0.345E-02 0.435E-02 0.105E-01 0.141E-01 0.182E-01 0.214E-01 0.331E-01 0.345E-01


 Contracted 2-electron integrals neglected if value below      1.0D-16
 AO integral compression algorithm  1   Integral accuracy      1.0D-16

     127.402 MB (compressed) written to integral file ( 93.4%)

     Node minimum: 31.982 MB, node maximum: 48.234 MB


 NUMBER OF SORTED TWO-ELECTRON INTEGRALS:    5164320.     BUFFER LENGTH:  32768
 NUMBER OF SEGMENTS:   1  SEGMENT LENGTH:    5164320      RECORD LENGTH: 524288

 Memory used in sort:       5.72 MW

 SORT1 READ    17075332. AND WROTE     5135945. INTEGRALS IN     15 RECORDS. CPU TIME:     0.34 SEC, REAL TIME:     0.38 SEC
 SORT2 READ    15396730. AND WROTE    15487395. INTEGRALS IN    366 RECORDS. CPU TIME:     0.11 SEC, REAL TIME:     0.16 SEC

 Node minimum:     5160610.  Node maximum:     5164320. integrals

 OPERATOR DM      FOR CENTER  0  COORDINATES:    0.000000    0.000000    0.000000


 **********************************************************************************************************************************
 DATASETS  * FILE   NREC   LENGTH (MB)   RECORD NAMES
              1      18        3.17       500      610      700      900      950      970     1000      129      960     1100   
                                          VAR    BASINP    GEOM    SYMINP    ZMAT    AOBASIS   BASIS     P2S    ABASIS      S 
                                         1400     1410     1200     1210     1080     1600     1650     1700   
                                           T        V       H0       H01     AOSYM     SMH    MOLCAS    OPER   

 PROGRAMS   *        TOTAL       INT
 CPU TIMES  *         1.54      1.44
 REAL TIME  *         1.83 SEC
 DISK USED  *       314.44 MB      
 GA USED    *         0.00 MB       (max)       0.00 MB       (current)
 **********************************************************************************************************************************

1PROGRAM * RHF-SCF (OPEN SHELL)       Authors: W. Meyer, H.-J. Werner


 NUMBER OF ELECTRONS:      21+   20-    SPACE SYMMETRY=1    SPIN SYMMETRY: Doublet 
 CONVERGENCE THRESHOLDS:    1.00E-10 (Density)    1.00E-11 (Energy)
 MAX. NUMBER OF ITERATIONS:      200
 INTERPOLATION TYPE:            DIIS
 INTERPOLATION STEPS:              2 (START)      1 (STEP)
 LEVEL SHIFTS:                 -0.30 (CLOSED)  0.00 (OPEN) 



 Orbital guess generated from atomic densities. Full valence occupancy:   32

 Molecular orbital dump at record        2100.2

 ITERATION    DDIFF          GRAD             ENERGY        2-EL.EN.            DIPOLE MOMENTS         DIIS
    1      0.000D+00      0.000D+00      -267.17825731    555.827178    0.57144    0.05001   -0.74882    0
    2      0.000D+00      0.617D-02      -267.24894193    555.750380    0.41508   -0.13162   -0.59895    1
    3      0.928D-02      0.214D-02      -267.26112001    555.668062    0.39483   -0.05982   -0.62655    2
    4      0.336D-02      0.912D-03      -267.26472999    555.820557    0.38019   -0.10014   -0.64312    3
    5      0.186D-02      0.364D-03      -267.26529942    555.791982    0.38272   -0.09373   -0.63616    4
    6      0.792D-03      0.110D-03      -267.26537588    555.778241    0.38098   -0.09356   -0.63892    5
    7      0.277D-03      0.511D-04      -267.26539604    555.775230    0.38025   -0.09331   -0.63842    6
    8      0.144D-03      0.273D-04      -267.26540211    555.773287    0.38052   -0.09343   -0.63864    7
    9      0.924D-04      0.115D-04      -267.26540303    555.773597    0.38070   -0.09339   -0.63840    8
   10      0.366D-04      0.501D-05      -267.26540319    555.774210    0.38096   -0.09340   -0.63846    9
   11      0.147D-04      0.196D-05      -267.26540322    555.774051    0.38101   -0.09340   -0.63847    9
   12      0.651D-05      0.670D-06      -267.26540322    555.774186    0.38103   -0.09340   -0.63846    9
   13      0.227D-05      0.226D-06      -267.26540322    555.774101    0.38104   -0.09340   -0.63846    9
   14      0.631D-06      0.757D-07      -267.26540322    555.774110    0.38104   -0.09340   -0.63846    9
   15      0.193D-06      0.300D-07      -267.26540322    555.774106    0.38104   -0.09340   -0.63846    9
   16      0.824D-07      0.145D-07      -267.26540322    555.774108    0.38104   -0.09340   -0.63846    9
   17      0.373D-07      0.749D-08      -267.26540322    555.774108    0.38104   -0.09340   -0.63846    9
   18      0.222D-07      0.341D-08      -267.26540322    555.774108    0.38104   -0.09340   -0.63846    9
   19      0.114D-07      0.133D-08      -267.26540322    555.774108    0.38104   -0.09340   -0.63846    9
   20      0.444D-08      0.566D-09      -267.26540322    555.774108    0.38104   -0.09340   -0.63846    9
   21      0.165D-08      0.286D-09      -267.26540322    555.774108    0.38104   -0.09340   -0.63846    9
   22      0.753D-09      0.162D-09      -267.26540322    555.774108    0.38104   -0.09340   -0.63846    9
   23      0.446D-09      0.795D-10      -267.26540322    555.774108    0.38104   -0.09340   -0.63846    9
   24      0.263D-09      0.316D-10      -267.26540322    555.774108    0.38104   -0.09340   -0.63846    9
   25      0.931D-10      0.129D-10      -267.26540322    555.774108    0.38104   -0.09340   -0.63846    0

 Final alpha occupancy:  21
 Final beta  occupancy:  20

 !RHF STATE 1.1 Energy               -267.265403218239
 Nuclear energy                       183.22881424
 One-electron energy                 -728.38127139
 Two-electron energy                  277.88705393
 Virial quotient                       -1.00155071
 !RHF STATE 1.1 Dipole moment           0.38103931    -0.09340159    -0.63845869
 Dipole moment /Debye                   0.96844188    -0.23738762    -1.62269384

 Orbital energies:

         1.1          2.1          3.1          4.1          5.1          6.1          7.1          8.1          9.1         10.1
    -20.630456   -20.628767   -11.279277   -11.238117   -11.231991    -1.470245    -1.240830    -1.023260    -0.945339    -0.768479

        11.1         12.1         13.1         14.1         15.1         16.1         17.1         18.1         19.1         20.1
     -0.704740    -0.642958    -0.626757    -0.588796    -0.545109    -0.543521    -0.538984    -0.516994    -0.493024    -0.469773

        21.1         22.1         23.1
     -0.352328     0.181339     0.183580


 **********************************************************************************************************************************
 DATASETS  * FILE   NREC   LENGTH (MB)   RECORD NAMES
              1      18        3.17       500      610      700      900      950      970     1000      129      960     1100   
                                          VAR    BASINP    GEOM    SYMINP    ZMAT    AOBASIS   BASIS     P2S    ABASIS      S 
                                         1400     1410     1200     1210     1080     1600     1650     1700   
                                           T        V       H0       H01     AOSYM     SMH    MOLCAS    OPER   

              2       3        0.77       700     1000     2100   
                                         GEOM     BASIS     RHF  

 PROGRAMS   *        TOTAL       RHF       INT
 CPU TIMES  *         3.44      1.90      1.44
 REAL TIME  *         3.89 SEC
 DISK USED  *       331.01 MB      
 SF USED    *         0.04 MB      
 GA USED    *         0.00 MB       (max)       0.00 MB       (current)
 **********************************************************************************************************************************


1PROGRAM * CCSD (Unrestricted open-shell coupled cluster)     Authors: C. Hampel, H.-J. Werner, 1991, M. Deegan, P.J. Knowles, 1992


 Convergence thresholds:  THRVAR = 1.00D-08  THRDEN = 1.00D-10

 CCSD(T)     terms to be evaluated (factor= 1.000)


 Number of core orbitals:           5 (   5 )
 Number of closed-shell orbitals:  15 (  15 )
 Number of active  orbitals:        1 (   1 )
 Number of external orbitals:      84 (  84 )

 Memory could be reduced to 24.91 Mwords without degradation in triples

 Number of N-1 electron functions:              31
 Number of N-2 electron functions:             465
 Number of singly external CSFs:              2635
 Number of doubly external CSFs:           2537250
 Total number of CSFs:                     2539885

 Molecular orbitals read from record     2100.2  Type=RHF/CANONICAL (state 1.1)

 Integral transformation finished. Total CPU:   1.41 sec, npass=  1  Memory used:  12.63 MW

 Starting RMP2 calculation

 ITER.      SQ.NORM     CORR.ENERGY   TOTAL ENERGY   ENERGY CHANGE        DEN1      VAR(S)    VAR(P)  DIIS     TIME
   1      1.24301792    -0.78636028  -268.05176350    -0.78636028    -0.00304965  0.20D-04  0.11D-02  1  1     1.84
   2      1.24565926    -0.78964913  -268.05505235    -0.00328885    -0.00000475  0.54D-06  0.19D-05  2  2     2.20
   3      1.24572485    -0.78969121  -268.05509443    -0.00004208    -0.00000003  0.16D-07  0.68D-08  3  3     2.58
   4      1.24572580    -0.78969121  -268.05509443    -0.00000000    -0.00000000  0.27D-09  0.38D-10  4  4     3.00
   5      1.24572588    -0.78969125  -268.05509446    -0.00000003    -0.00000000  0.25D-11  0.65D-12  5  5     3.45
   6      1.24572590    -0.78969125  -268.05509447    -0.00000001    -0.00000000  0.28D-13  0.87D-14  6  6     3.94
   7      1.24572590    -0.78969125  -268.05509447     0.00000000    -0.00000000  0.47D-15  0.12D-15  6  1     4.53
   8      1.24572590    -0.78969125  -268.05509447     0.00000000    -0.00000000  0.59D-17  0.13D-17  6  2     5.11

 Norm of t1 vector:      0.03893435      S-energy:    -0.00227157      T1 diagnostic:  0.00055050
 Norm of t2 vector:      0.49417610      P-energy:    -0.78741968
                                         Alpha-Beta:  -0.59340223
                                         Alpha-Alpha: -0.10093932
                                         Beta-Beta:   -0.09307814

 Spin contamination <S**2-Sz**2-Sz>     0.00104055
  Reference energy                   -267.265403218240
  RHF-RMP2 correlation energy          -0.789691251509
 !RHF-RMP2 energy                    -268.055094469749

 Starting UCCSD calculation

 ITER.      SQ.NORM     CORR.ENERGY   TOTAL ENERGY   ENERGY CHANGE        DEN1      VAR(S)    VAR(P)  DIIS     TIME
   1      1.26279339    -0.80903435  -268.07443756    -0.80903435    -0.02515514  0.38D-02  0.59D-02  1  1    13.65
   2      1.29156706    -0.83644242  -268.10184564    -0.02740807    -0.00201109  0.22D-03  0.66D-03  2  2    21.78
   3      1.30150880    -0.84094037  -268.10634359    -0.00449795    -0.00032468  0.19D-03  0.56D-04  3  3    29.94
   4      1.30642290    -0.84241760  -268.10782082    -0.00147723    -0.00007210  0.43D-04  0.14D-04  4  4    38.16
   5      1.30915381    -0.84280585  -268.10820907    -0.00038826    -0.00002367  0.19D-04  0.32D-05  5  5    46.40
   6      1.31109328    -0.84301038  -268.10841360    -0.00020452    -0.00000645  0.42D-05  0.12D-05  6  6    54.66
   7      1.31204199    -0.84306913  -268.10847235    -0.00005875    -0.00000208  0.14D-05  0.37D-06  6  2    62.90
   8      1.31248293    -0.84311177  -268.10851499    -0.00004264    -0.00000065  0.45D-06  0.11D-06  6  1    71.15
   9      1.31266777    -0.84311634  -268.10851956    -0.00000457    -0.00000022  0.15D-06  0.35D-07  6  4    79.41
  10      1.31273080    -0.84311926  -268.10852248    -0.00000292    -0.00000005  0.35D-07  0.95D-08  6  3    87.69
  11      1.31276028    -0.84311801  -268.10852122     0.00000126    -0.00000002  0.13D-07  0.28D-08  6  5    95.94
  12      1.31277064    -0.84311775  -268.10852097     0.00000026    -0.00000000  0.26D-08  0.95D-09  6  6   105.68
  13      1.31276949    -0.84311683  -268.10852005     0.00000091    -0.00000000  0.96D-09  0.28D-09  6  2   115.61
  14      1.31276428    -0.84311599  -268.10851921     0.00000084    -0.00000000  0.21D-09  0.67D-10  6  1   125.68
  15      1.31276021    -0.84311540  -268.10851862     0.00000059    -0.00000000  0.78D-10  0.19D-10  6  4   135.52
  16      1.31275702    -0.84311502  -268.10851824     0.00000038    -0.00000000  0.28D-10  0.63D-11  6  3   144.91
  17      1.31275483    -0.84311478  -268.10851800     0.00000024    -0.00000000  0.10D-10  0.24D-11  6  5   155.23
  18      1.31275392    -0.84311472  -268.10851794     0.00000006    -0.00000000  0.41D-11  0.87D-12  6  6   163.94
  19      1.31275332    -0.84311469  -268.10851790     0.00000003    -0.00000000  0.16D-11  0.37D-12  6  2   172.20
  20      1.31275300    -0.84311467  -268.10851789     0.00000001    -0.00000000  0.60D-12  0.13D-12  6  1   180.46
  21      1.31275283    -0.84311466  -268.10851788     0.00000001    -0.00000000  0.28D-12  0.58D-13  6  4   188.73
  22      1.31275271    -0.84311466  -268.10851787     0.00000001    -0.00000000  0.74D-13  0.21D-13  6  3   195.80
  23      1.31275265    -0.84311465  -268.10851787     0.00000000    -0.00000000  0.21D-13  0.63D-14  6  5   204.09
  24      1.31275265    -0.84311465  -268.10851787    -0.00000000    -0.00000000  0.67D-14  0.22D-14  6  6   212.33
  25      1.31275265    -0.84311466  -268.10851787    -0.00000000    -0.00000000  0.21D-14  0.52D-15  6  2   220.59
  26      1.31275266    -0.84311466  -268.10851787    -0.00000000    -0.00000000  0.77D-15  0.15D-15  6  1   228.84
  27      1.31275267    -0.84311466  -268.10851787    -0.00000000    -0.00000000  0.20D-15  0.62D-16  6  3   237.07
  28      1.31275267    -0.84311466  -268.10851788    -0.00000000    -0.00000000  0.30D-16  0.11D-16  6  4   245.36
  29      1.31275268    -0.84311466  -268.10851788    -0.00000000    -0.00000000  0.70D-17  0.29D-17  6  5   253.60
  30      1.31275268    -0.84311466  -268.10851788    -0.00000000    -0.00000000  0.15D-17  0.54D-18  6  6   261.83
  31      1.31275268    -0.84311466  -268.10851788    -0.00000000    -0.00000000  0.35D-18  0.10D-18  6  2   270.07

 Norm of t1 vector:      0.13872015      S-energy:    -0.00282125      T1 diagnostic:  0.01616951
                                                                       D1 diagnostic:  0.06284010
 Norm of t2 vector:      0.54176508      P-energy:    -0.84029341
                                         Alpha-Beta:  -0.66484870
                                         Alpha-Alpha: -0.09147344
                                         Beta-Beta:   -0.08397127

 Spin contamination <S**2-Sz**2-Sz>     0.00217095

 Memory could be reduced to 28.85 Mwords without degradation in triples
 

 RESULTS
 =======

  Reference energy                   -267.265403218240
  UCCSD singles energy                 -0.002821251871
  UCCSD pair energy                    -0.840293405436
  UCCSD correlation energy             -0.843114657307
  Triples (T) contribution             -0.024975188137
  Total correlation energy             -0.868089845444
 
  RHF-UCCSD energy                   -268.108517875547
  RHF-UCCSD[T] energy                -268.134828937240
  RHF-UCCSD-T energy                 -268.133071599616
 !RHF-UCCSD(T) energy                -268.133493063684

 Program statistics:

 Available memory in ccsd:               999997692
 Min. memory needed in ccsd:               7337057
 Max. memory used in ccsd:                10523002
 Max. memory used in cckext:              10867977 (31 integral passes)
 Max. memory used in cckint:              12633073 ( 1 integral passes)



 **********************************************************************************************************************************
 DATASETS  * FILE   NREC   LENGTH (MB)   RECORD NAMES
              1      18        3.17       500      610      700      900      950      970     1000      129      960     1100   
                                          VAR    BASINP    GEOM    SYMINP    ZMAT    AOBASIS   BASIS     P2S    ABASIS      S 
                                         1400     1410     1200     1210     1080     1600     1650     1700   
                                           T        V       H0       H01     AOSYM     SMH    MOLCAS    OPER   

              2       3        0.77       700     1000     2100   
                                         GEOM     BASIS     RHF  

 PROGRAMS   *        TOTAL  UCCSD(T)       RHF       INT
 CPU TIMES  *       346.16    342.72      1.90      1.44
 REAL TIME  *       359.09 SEC
 DISK USED  *         1.30 GB      
 SF USED    *       553.73 MB      
 GA USED    *         0.00 MB       (max)       0.00 MB       (current)
 **********************************************************************************************************************************

        UCCSD(T)        RHF-SCF 
   -268.13349306   -267.26540322
 **********************************************************************************************************************************
 Variable memory released
