
 Primary working directories    : /tmp/320938.609.gen6.q
 Secondary working directories  : /tmp/320938.609.gen6.q
 Wavefunction directory         : /home/vulcan/mel64643/wfu/
 Main file repository           : /tmp/320938.609.gen6.q/

 ARCHNAME  : Linux/x86_64
 FC        : /opt/intel/compilers_and_libraries_2016.1.150/linux/bin/intel64/ifort
 FCVERSION : 16.0.1
 BLASLIB   : -mkl
 id        : ccgc

 Nodes     nprocs
 n078         3
 Number of processes for MPI-2 version of Molpro:   nprocs(total)=    4   nprocs(compute)=    3   nprocs(helper)=    1
 ga_uses_ma=false, calling ma_init with nominal heap.
 GA-space will be limited to   8.0 MW (determined by -G option)

 Using customized tuning parameters: mindgm=10; mindgv=16; mindgc=4; mindgr=1; noblas=0; mincuda=1000; minvec=7
 default implementation of scratch files=sf  

 ***,Frequencies for min3
 memory,1000,m
 gthresh,energy=1.0d-10,orbital=1.0d-10,oneint=1.0d-16,twoint=1.0d-16,optgrad=1.0d-6,compress=1.0d-13
 geomtyp=xyz
 
  geometry = {
  12
  arbitrary comment
     C    1.776964391707    0.711398808326   -0.047331391796
     C    0.491811976407   -0.059992870174   -0.196493901896
     C    0.449756435841   -1.536153987093    0.101396702431
     O   -0.560654843319    0.727228597351    0.254464895361
     O   -1.837638147381    0.092084808680   -0.120523721073
     H    2.585556314590    0.211919819274   -0.611448490150
     H    1.660391514743    1.743207439618   -0.428369288811
     H    2.094865841299    0.774181992258    1.019186963086
     H   -0.504183624252   -1.982692231953   -0.220422104493
     H    1.282638735453   -2.046579953379   -0.417155081772
     H    0.562111526744   -1.719503177229    1.194755668543
     H   -1.987834516406    0.550911243959   -0.966418465211
  }
 
 basis=cc-pvdz
 {rhf;maxit,200}
 {uccsd(t);maxit,200}

 Variables initialized (661), CPU time= 0.00 sec
 Commands  initialized (458), CPU time= 0.00 sec, 486 directives.
 Default parameters read. Elapsed time= 0.05 sec

 Checking input...
 Passed
1


                                         ***  PROGRAM SYSTEM MOLPRO  ***
                         Copyright, University College Cardiff Consultants Limited, 2008

                                    Version 2010.1 linked May 16 2016 07:17:05


 **********************************************************************************************************************************
 LABEL *   Frequencies for min3                                                          
 Linux-4.4.3/n078(x86_64) 64 bit mpp version                                             DATE: 07-Mar-20          TIME: 04:32:50  
 **********************************************************************************************************************************

 SHA1:             9e8077add272b0f3cad6f7df79ec5211205f459d
 **********************************************************************************************************************************

 THRESHOLDS:

 ZERO    =  1.00D-12  ONEINT  =  1.00D-16  TWOINT  =  1.00D-16  PREFAC  =  1.00D-14  LOCALI  =  1.00D-09  EORDER  =  1.00D-04
 ENERGY  =  1.00D-10  ETEST   =  0.00D+00  EDENS   =  0.00D+00  THRDEDEF=  1.00D-06  GRADIENT=  1.00D-02  STEP    =  1.00D-03
 ORBITAL =  1.00D-10  CIVEC   =  1.00D-05  COEFF   =  1.00D-04  PRINTCI =  5.00D-02  PUNCHCI =  9.90D+01  OPTGRAD =  1.00D-06
 OPTENERG=  1.00D-06  OPTSTEP =  3.00D-04  THRGRAD =  1.00D-10  COMPRESS=  1.00D-13  VARMIN  =  1.00D-07  VARMAX  =  1.00D-03
 THRDOUB =  0.00D+00  THRDIV  =  1.00D-05  THRRED  =  1.00D-07  THRPSP  =  1.00D+00  THRDC   =  1.00D-10  THRCS   =  1.00D-10
 THRNRM  =  1.00D-08  THREQ   =  0.00D+00  THRDE   =  1.00D+00  THRREF  =  1.00D-05  SPARFAC =  1.00D+00  THRDLP  =  1.00D-07
 THRDIA  =  1.00D-10  THRDLS  =  1.00D-07  THRGPS  =  0.00D+00  THRKEX  =  0.00D+00  THRDIS  =  2.00D-01  THRVAR  =  1.00D-10
 THRLOC  =  1.00D-06  THRGAP  =  1.00D-06  THRLOCT = -1.00D+00  THRGAPT = -1.00D+00  THRORB  =  1.00D-06  THRMLTP =  0.00D+00
 THRCPQCI=  1.00D-10  KEXTA   =  0.00D+00  THRCOARS=  0.00D+00  SYMTOL  =  1.00D-06  GRADTOL =  1.00D-06  THROVL  =  1.00D-08
 THRORTH =  1.00D-08  GRID    =  1.00D-06  GRIDMAX =  1.00D-03  DTMAX   =  0.00D+00

 SETTING GEOMTYP        =    XYZ

 Variable memory set to 1000000000 words,  buffer space   230000 words

 SETTING BASIS          =    CC-PVDZ


 Recomputing integrals since basis changed


 Using spherical harmonics

 Library entry C      S cc-pVDZ              selected for orbital group  1
 Library entry C      P cc-pVDZ              selected for orbital group  1
 Library entry C      D cc-pVDZ              selected for orbital group  1
 Library entry O      S cc-pVDZ              selected for orbital group  2
 Library entry O      P cc-pVDZ              selected for orbital group  2
 Library entry O      D cc-pVDZ              selected for orbital group  2
 Library entry H      S cc-pVDZ              selected for orbital group  3
 Library entry H      P cc-pVDZ              selected for orbital group  3

1PROGRAM * SEWARD (Integral evaluation for generally contracted gaussian basis sets)     Author: Roland Lindh, 1990

 Geometry written to block  1 of record 700


 Point group  C1  



 ATOMIC COORDINATES

 NR  ATOM    CHARGE       X              Y              Z

   1  C       6.00    3.357976046    1.344348918   -0.089443368
   2  C       6.00    0.929389944   -0.113370094   -0.371319661
   3  C       6.00    0.849916490   -2.902910331    0.191611998
   4  O       8.00   -1.059484108    1.374262884    0.480868962
   5  O       8.00   -3.472632827    0.174015069   -0.227756825
   6  H       1.00    4.885993332    0.400470420   -1.155470190
   7  H       1.00    3.137685234    3.294184651   -0.809500639
   8  H       1.00    3.958722722    1.462991941    1.925984237
   9  H       1.00   -0.952768970   -3.746745321   -0.416537411
  10  H       1.00    2.423835936   -3.867475618   -0.788308859
  11  H       1.00    1.062236841   -3.249390087    2.257761008
  12  H       1.00   -3.756462831    1.041071374   -1.826266228

 Bond lengths in Bohr (Angstrom)

 1-2  2.846476668  1-6  2.088577657  1-7  2.090184179  1-8  2.106400049  2-3  2.846883000
     ( 1.506290578)     ( 1.105227696)     ( 1.106077830)     ( 1.114658899)     ( 1.506505600)

  2- 4  2.625813649   3- 9  2.081244354   3-10  2.089941028   3-11  2.105730249   4- 5  2.786760137
       ( 1.389520738)       ( 1.101347078)       ( 1.105949160)       ( 1.114304456)       ( 1.474689952)

  5-12  1.840537534
       ( 0.973970516)

 Bond angles

  1-2-3  120.40007158   1-2-4  108.90265503   2-1-6  110.01214894   2-1-7  110.71333246

  2- 1- 8  111.52608572   2- 3- 9  111.32642443   2- 3-10  109.78517598   2- 3-11  110.63612031

  2- 4- 5  109.22945197   3- 2- 4  118.02209534   4- 5-12   98.71298633   6- 1- 7  108.83551129

  6- 1- 8  107.76804112   7- 1- 8  107.88645074   9- 3-10  109.15740001   9- 3-11  107.89862538

 10- 3-11  107.94999976

 NUCLEAR CHARGE:                   41
 NUMBER OF PRIMITIVE AOS:         184
 NUMBER OF SYMMETRY AOS:          179
 NUMBER OF CONTRACTIONS:          105   ( 105A   )
 NUMBER OF CORE ORBITALS:           5   (   5A   )
 NUMBER OF VALENCE ORBITALS:       27   (  27A   )


 NUCLEAR REPULSION ENERGY  183.22575223


 Eigenvalues of metric

         1 0.345E-02 0.435E-02 0.105E-01 0.141E-01 0.182E-01 0.214E-01 0.331E-01 0.346E-01


 Contracted 2-electron integrals neglected if value below      1.0D-16
 AO integral compression algorithm  1   Integral accuracy      1.0D-16

     127.402 MB (compressed) written to integral file ( 93.4%)

     Node minimum: 40.632 MB, node maximum: 43.778 MB


 NUMBER OF SORTED TWO-ELECTRON INTEGRALS:    5164320.     BUFFER LENGTH:  32768
 NUMBER OF SEGMENTS:   1  SEGMENT LENGTH:    5164320      RECORD LENGTH: 524288

 Memory used in sort:       5.72 MW

 SORT1 READ    17075251. AND WROTE     5135918. INTEGRALS IN     15 RECORDS. CPU TIME:     0.19 SEC, REAL TIME:     0.23 SEC
 SORT2 READ    15396690. AND WROTE    15487395. INTEGRALS IN    501 RECORDS. CPU TIME:     0.05 SEC, REAL TIME:     0.09 SEC

 Node minimum:     5160610.  Node maximum:     5164320. integrals

 OPERATOR DM      FOR CENTER  0  COORDINATES:    0.000000    0.000000    0.000000


 **********************************************************************************************************************************
 DATASETS  * FILE   NREC   LENGTH (MB)   RECORD NAMES
              1      18        3.17       500      610      700      900      950      970     1000      129      960     1100   
                                          VAR    BASINP    GEOM    SYMINP    ZMAT    AOBASIS   BASIS     P2S    ABASIS      S 
                                         1400     1410     1200     1210     1080     1600     1650     1700   
                                           T        V       H0       H01     AOSYM     SMH    MOLCAS    OPER   

 PROGRAMS   *        TOTAL       INT
 CPU TIMES  *         0.79      0.75
 REAL TIME  *         1.21 SEC
 DISK USED  *       305.71 MB      
 GA USED    *         0.00 MB       (max)       0.00 MB       (current)
 **********************************************************************************************************************************

1PROGRAM * RHF-SCF (OPEN SHELL)       Authors: W. Meyer, H.-J. Werner


 NUMBER OF ELECTRONS:      21+   20-    SPACE SYMMETRY=1    SPIN SYMMETRY: Doublet 
 CONVERGENCE THRESHOLDS:    1.00E-10 (Density)    1.00E-11 (Energy)
 MAX. NUMBER OF ITERATIONS:      200
 INTERPOLATION TYPE:            DIIS
 INTERPOLATION STEPS:              2 (START)      1 (STEP)
 LEVEL SHIFTS:                 -0.30 (CLOSED)  0.00 (OPEN) 



 Orbital guess generated from atomic densities. Full valence occupancy:   32

 Molecular orbital dump at record        2100.2

 ITERATION    DDIFF          GRAD             ENERGY        2-EL.EN.            DIPOLE MOMENTS         DIIS
    1      0.000D+00      0.000D+00      -267.17823499    555.825385    0.57211    0.05039   -0.74898    0
    2      0.000D+00      0.617D-02      -267.24889985    555.745738    0.41433   -0.13089   -0.59879    1
    3      0.927D-02      0.214D-02      -267.26107788    555.663876    0.39382   -0.05904   -0.62623    2
    4      0.336D-02      0.912D-03      -267.26468739    555.815999    0.37898   -0.09930   -0.64269    3
    5      0.186D-02      0.363D-03      -267.26525698    555.787321    0.38141   -0.09286   -0.63568    4
    6      0.793D-03      0.110D-03      -267.26533347    555.773591    0.37964   -0.09267   -0.63843    5
    7      0.277D-03      0.511D-04      -267.26535363    555.770570    0.37891   -0.09242   -0.63792    6
    8      0.144D-03      0.273D-04      -267.26535970    555.768627    0.37918   -0.09254   -0.63814    7
    9      0.924D-04      0.115D-04      -267.26536062    555.768939    0.37937   -0.09249   -0.63789    8
   10      0.366D-04      0.501D-05      -267.26536077    555.769551    0.37963   -0.09251   -0.63796    9
   11      0.147D-04      0.196D-05      -267.26536080    555.769393    0.37968   -0.09250   -0.63797    9
   12      0.651D-05      0.670D-06      -267.26536080    555.769528    0.37970   -0.09250   -0.63796    9
   13      0.227D-05      0.226D-06      -267.26536080    555.769443    0.37970   -0.09250   -0.63796    9
   14      0.631D-06      0.759D-07      -267.26536080    555.769452    0.37970   -0.09250   -0.63796    9
   15      0.193D-06      0.301D-07      -267.26536080    555.769448    0.37970   -0.09250   -0.63796    9
   16      0.828D-07      0.146D-07      -267.26536080    555.769449    0.37970   -0.09250   -0.63796    9
   17      0.377D-07      0.755D-08      -267.26536080    555.769449    0.37970   -0.09250   -0.63796    9
   18      0.224D-07      0.343D-08      -267.26536080    555.769450    0.37970   -0.09250   -0.63796    9
   19      0.115D-07      0.133D-08      -267.26536080    555.769450    0.37970   -0.09250   -0.63796    9
   20      0.444D-08      0.569D-09      -267.26536080    555.769450    0.37970   -0.09250   -0.63796    9
   21      0.166D-08      0.288D-09      -267.26536080    555.769450    0.37970   -0.09250   -0.63796    9
   22      0.757D-09      0.162D-09      -267.26536080    555.769450    0.37970   -0.09250   -0.63796    9
   23      0.448D-09      0.799D-10      -267.26536080    555.769450    0.37970   -0.09250   -0.63796    9
   24      0.265D-09      0.318D-10      -267.26536080    555.769450    0.37970   -0.09250   -0.63796    9
   25      0.935D-10      0.130D-10      -267.26536080    555.769450    0.37970   -0.09250   -0.63796    0

 Final alpha occupancy:  21
 Final beta  occupancy:  20

 !RHF STATE 1.1 Energy               -267.265360803777
 Nuclear energy                       183.22575223
 One-electron energy                 -728.37583783
 Two-electron energy                  277.88472479
 Virial quotient                       -1.00156168
 !RHF STATE 1.1 Dipole moment           0.37970285    -0.09250317    -0.63795873
 Dipole moment /Debye                   0.96504516    -0.23510420    -1.62142316

 Orbital energies:

         1.1          2.1          3.1          4.1          5.1          6.1          7.1          8.1          9.1         10.1
    -20.630474   -20.628792   -11.279269   -11.238141   -11.232190    -1.470246    -1.240825    -1.023177    -0.945255    -0.768423

        11.1         12.1         13.1         14.1         15.1         16.1         17.1         18.1         19.1         20.1
     -0.704680    -0.643024    -0.626778    -0.588678    -0.545200    -0.543246    -0.538891    -0.516902    -0.493009    -0.469850

        21.1         22.1         23.1
     -0.352290     0.181282     0.183547


 **********************************************************************************************************************************
 DATASETS  * FILE   NREC   LENGTH (MB)   RECORD NAMES
              1      18        3.17       500      610      700      900      950      970     1000      129      960     1100   
                                          VAR    BASINP    GEOM    SYMINP    ZMAT    AOBASIS   BASIS     P2S    ABASIS      S 
                                         1400     1410     1200     1210     1080     1600     1650     1700   
                                           T        V       H0       H01     AOSYM     SMH    MOLCAS    OPER   

              2       3        0.77       700     1000     2100   
                                         GEOM     BASIS     RHF  

 PROGRAMS   *        TOTAL       RHF       INT
 CPU TIMES  *         1.67      0.88      0.75
 REAL TIME  *         2.22 SEC
 DISK USED  *       322.27 MB      
 SF USED    *         0.04 MB      
 GA USED    *         0.00 MB       (max)       0.00 MB       (current)
 **********************************************************************************************************************************


1PROGRAM * CCSD (Unrestricted open-shell coupled cluster)     Authors: C. Hampel, H.-J. Werner, 1991, M. Deegan, P.J. Knowles, 1992


 Convergence thresholds:  THRVAR = 1.00D-08  THRDEN = 1.00D-10

 CCSD(T)     terms to be evaluated (factor= 1.000)


 Number of core orbitals:           5 (   5 )
 Number of closed-shell orbitals:  15 (  15 )
 Number of active  orbitals:        1 (   1 )
 Number of external orbitals:      84 (  84 )

 Memory could be reduced to 24.91 Mwords without degradation in triples

 Number of N-1 electron functions:              31
 Number of N-2 electron functions:             465
 Number of singly external CSFs:              2635
 Number of doubly external CSFs:           2537250
 Total number of CSFs:                     2539885

 Molecular orbitals read from record     2100.2  Type=RHF/CANONICAL (state 1.1)

 Integral transformation finished. Total CPU:   0.69 sec, npass=  1  Memory used:  12.63 MW

 Starting RMP2 calculation

 ITER.      SQ.NORM     CORR.ENERGY   TOTAL ENERGY   ENERGY CHANGE        DEN1      VAR(S)    VAR(P)  DIIS     TIME
   1      1.24305378    -0.78639326  -268.05175407    -0.78639326    -0.00305033  0.20D-04  0.11D-02  1  1     0.95
   2      1.24569602    -0.78968286  -268.05504366    -0.00328960    -0.00000475  0.54D-06  0.19D-05  2  2     1.19
   3      1.24576162    -0.78972495  -268.05508576    -0.00004209    -0.00000003  0.16D-07  0.68D-08  3  3     1.45
   4      1.24576258    -0.78972496  -268.05508576    -0.00000000    -0.00000000  0.27D-09  0.38D-10  4  4     1.73
   5      1.24576266    -0.78972499  -268.05508579    -0.00000003    -0.00000000  0.25D-11  0.65D-12  5  5     2.03
   6      1.24576267    -0.78972499  -268.05508580    -0.00000001    -0.00000000  0.28D-13  0.87D-14  6  6     2.36
   7      1.24576267    -0.78972499  -268.05508580     0.00000000    -0.00000000  0.47D-15  0.12D-15  6  1     2.69
   8      1.24576267    -0.78972499  -268.05508580     0.00000000    -0.00000000  0.60D-17  0.13D-17  6  2     3.01

 Norm of t1 vector:      0.03893778      S-energy:    -0.00227196      T1 diagnostic:  0.00055050
 Norm of t2 vector:      0.49421303      P-energy:    -0.78745303
                                         Alpha-Beta:  -0.59343308
                                         Alpha-Alpha: -0.10094086
                                         Beta-Beta:   -0.09307909

 Spin contamination <S**2-Sz**2-Sz>     0.00104052
  Reference energy                   -267.265360803777
  RHF-RMP2 correlation energy          -0.789724993942
 !RHF-RMP2 energy                    -268.055085797719

 Starting UCCSD calculation

 ITER.      SQ.NORM     CORR.ENERGY   TOTAL ENERGY   ENERGY CHANGE        DEN1      VAR(S)    VAR(P)  DIIS     TIME
   1      1.26283505    -0.80906621  -268.07442702    -0.80906621    -0.02515990  0.38D-02  0.59D-02  1  1     7.62
   2      1.29161933    -0.83648023  -268.10184103    -0.02741402    -0.00201172  0.22D-03  0.66D-03  2  2    12.24
   3      1.30156537    -0.84098030  -268.10634111    -0.00450007    -0.00032471  0.19D-03  0.56D-04  3  3    16.90
   4      1.30648027    -0.84245795  -268.10781875    -0.00147764    -0.00007209  0.43D-04  0.14D-04  4  4    21.59
   5      1.30921064    -0.84284617  -268.10820697    -0.00038822    -0.00002367  0.19D-04  0.32D-05  5  5    26.31
   6      1.31114975    -0.84305065  -268.10841146    -0.00020448    -0.00000645  0.42D-05  0.12D-05  6  6    31.09
   7      1.31209867    -0.84310941  -268.10847021    -0.00005875    -0.00000208  0.14D-05  0.37D-06  6  2    35.86
   8      1.31253994    -0.84315207  -268.10851288    -0.00004267    -0.00000065  0.45D-06  0.11D-06  6  1    40.65
   9      1.31272501    -0.84315666  -268.10851746    -0.00000458    -0.00000022  0.15D-06  0.35D-07  6  4    45.43
  10      1.31278817    -0.84315959  -268.10852039    -0.00000293    -0.00000005  0.35D-07  0.95D-08  6  3    50.22
  11      1.31281767    -0.84315833  -268.10851913     0.00000126    -0.00000002  0.13D-07  0.28D-08  6  5    55.01
  12      1.31282803    -0.84315807  -268.10851887     0.00000026    -0.00000000  0.26D-08  0.95D-09  6  6    59.80
  13      1.31282688    -0.84315715  -268.10851795     0.00000092    -0.00000000  0.96D-09  0.28D-09  6  2    64.56
  14      1.31282167    -0.84315630  -268.10851711     0.00000084    -0.00000000  0.21D-09  0.67D-10  6  1    69.37
  15      1.31281760    -0.84315572  -268.10851652     0.00000059    -0.00000000  0.78D-10  0.19D-10  6  4    74.16
  16      1.31281442    -0.84315533  -268.10851614     0.00000038    -0.00000000  0.28D-10  0.63D-11  6  3    78.96
  17      1.31281222    -0.84315510  -268.10851590     0.00000024    -0.00000000  0.10D-10  0.24D-11  6  5    83.73
  18      1.31281131    -0.84315504  -268.10851584     0.00000006    -0.00000000  0.41D-11  0.87D-12  6  6    88.52
  19      1.31281070    -0.84315500  -268.10851581     0.00000003    -0.00000000  0.16D-11  0.37D-12  6  2    93.29
  20      1.31281039    -0.84315499  -268.10851579     0.00000001    -0.00000000  0.60D-12  0.13D-12  6  1    98.06
  21      1.31281022    -0.84315498  -268.10851578     0.00000001    -0.00000000  0.28D-12  0.58D-13  6  4   102.84
  22      1.31281010    -0.84315497  -268.10851578     0.00000001    -0.00000000  0.74D-13  0.21D-13  6  3   107.65
  23      1.31281004    -0.84315497  -268.10851577     0.00000000    -0.00000000  0.21D-13  0.63D-14  6  5   113.62
  24      1.31281004    -0.84315497  -268.10851577    -0.00000000    -0.00000000  0.67D-14  0.23D-14  6  6   119.56
  25      1.31281004    -0.84315497  -268.10851578    -0.00000000    -0.00000000  0.21D-14  0.52D-15  6  2   125.28
  26      1.31281005    -0.84315497  -268.10851578    -0.00000000    -0.00000000  0.77D-15  0.15D-15  6  1   131.51
  27      1.31281006    -0.84315497  -268.10851578    -0.00000000    -0.00000000  0.20D-15  0.62D-16  6  3   137.82
  28      1.31281006    -0.84315497  -268.10851578    -0.00000000    -0.00000000  0.30D-16  0.11D-16  6  4   144.11
  29      1.31281006    -0.84315497  -268.10851578    -0.00000000    -0.00000000  0.71D-17  0.29D-17  6  5   150.47
  30      1.31281007    -0.84315497  -268.10851578    -0.00000000    -0.00000000  0.15D-17  0.54D-18  6  6   156.76
  31      1.31281007    -0.84315497  -268.10851578    -0.00000000    -0.00000000  0.35D-18  0.10D-18  6  2   163.06

 Norm of t1 vector:      0.13872076      S-energy:    -0.00282172      T1 diagnostic:  0.01616931
                                                                       D1 diagnostic:  0.06282943
 Norm of t2 vector:      0.54181788      P-energy:    -0.84033325
                                         Alpha-Beta:  -0.66489149
                                         Alpha-Alpha: -0.09147231
                                         Beta-Beta:   -0.08396945

 Spin contamination <S**2-Sz**2-Sz>     0.00217122

 Memory could be reduced to 28.85 Mwords without degradation in triples
 

 RESULTS
 =======

  Reference energy                   -267.265360803777
  UCCSD singles energy                 -0.002821722081
  UCCSD pair energy                    -0.840333250999
  UCCSD correlation energy             -0.843154973080
  Triples (T) contribution             -0.024978770681
  Total correlation energy             -0.868133743761
 
  RHF-UCCSD energy                   -268.108515776857
  RHF-UCCSD[T] energy                -268.134830430244
  RHF-UCCSD-T energy                 -268.133073064472
 !RHF-UCCSD(T) energy                -268.133494547538

 Program statistics:

 Available memory in ccsd:               999997692
 Min. memory needed in ccsd:               7337057
 Max. memory used in ccsd:                10523002
 Max. memory used in cckext:              10867977 (31 integral passes)
 Max. memory used in cckint:              12633073 ( 1 integral passes)



 **********************************************************************************************************************************
 DATASETS  * FILE   NREC   LENGTH (MB)   RECORD NAMES
              1      18        3.17       500      610      700      900      950      970     1000      129      960     1100   
                                          VAR    BASINP    GEOM    SYMINP    ZMAT    AOBASIS   BASIS     P2S    ABASIS      S 
                                         1400     1410     1200     1210     1080     1600     1650     1700   
                                           T        V       H0       H01     AOSYM     SMH    MOLCAS    OPER   

              2       3        0.77       700     1000     2100   
                                         GEOM     BASIS     RHF  

 PROGRAMS   *        TOTAL  UCCSD(T)       RHF       INT
 CPU TIMES  *       209.32    207.65      0.88      0.75
 REAL TIME  *       218.91 SEC
 DISK USED  *         1.29 GB      
 SF USED    *       553.73 MB      
 GA USED    *         0.00 MB       (max)       0.00 MB       (current)
 **********************************************************************************************************************************

        UCCSD(T)        RHF-SCF 
   -268.13349455   -267.26536080
 **********************************************************************************************************************************
 Variable memory released
