
 Primary working directories    : /tmp/320938.858.gen6.q
 Secondary working directories  : /tmp/320938.858.gen6.q
 Wavefunction directory         : /home/vulcan/mel64643/wfu/
 Main file repository           : /tmp/320938.858.gen6.q/

 ARCHNAME  : Linux/x86_64
 FC        : /opt/intel/compilers_and_libraries_2016.1.150/linux/bin/intel64/ifort
 FCVERSION : 16.0.1
 BLASLIB   : -mkl
 id        : ccgc

 Nodes     nprocs
 n083         3
 Number of processes for MPI-2 version of Molpro:   nprocs(total)=    4   nprocs(compute)=    3   nprocs(helper)=    1
 ga_uses_ma=false, calling ma_init with nominal heap.
 GA-space will be limited to   8.0 MW (determined by -G option)

 Using customized tuning parameters: mindgm=10; mindgv=16; mindgc=4; mindgr=1; noblas=0; mincuda=1000; minvec=7
 default implementation of scratch files=sf  

 ***,Frequencies for min3
 memory,1000,m
 gthresh,energy=1.0d-10,orbital=1.0d-10,oneint=1.0d-16,twoint=1.0d-16,optgrad=1.0d-6,compress=1.0d-13
 geomtyp=xyz
 
  geometry = {
  12
  arbitrary comment
     C    1.776964391707    0.711398808326   -0.047841264117
     C    0.491851038607   -0.059957565567   -0.196226120821
     C    0.450320560748   -1.536305384832    0.101446886164
     O   -0.560818098403    0.727195755748    0.254643069170
     O   -1.837816411652    0.092034574798   -0.120681431253
     H    2.585685836158    0.211486679167   -0.610780345543
     H    1.661247371022    1.743213029385   -0.425849738018
     H    2.095342179734    0.774041737245    1.018291998597
     H   -0.505404805897   -1.981710972700   -0.220249210031
     H    1.281373078980   -2.046747012986   -0.417010001995
     H    0.561089693077   -1.718655112325    1.194803088609
     H   -1.987549446446    0.552517554031   -0.967116353184
  }
 
 basis=cc-pvdz
 {rhf;maxit,200}
 {uccsd(t);maxit,200}

 Variables initialized (661), CPU time= 0.00 sec
 Commands  initialized (458), CPU time= 0.01 sec, 486 directives.
 Default parameters read. Elapsed time= 0.05 sec

 Checking input...
 Passed
1


                                         ***  PROGRAM SYSTEM MOLPRO  ***
                         Copyright, University College Cardiff Consultants Limited, 2008

                                    Version 2010.1 linked May 16 2016 07:17:05


 **********************************************************************************************************************************
 LABEL *   Frequencies for min3                                                          
 Linux-4.4.3/n083(x86_64) 64 bit mpp version                                             DATE: 07-Mar-20          TIME: 06:01:34  
 **********************************************************************************************************************************

 SHA1:             9e8077add272b0f3cad6f7df79ec5211205f459d
 **********************************************************************************************************************************

 THRESHOLDS:

 ZERO    =  1.00D-12  ONEINT  =  1.00D-16  TWOINT  =  1.00D-16  PREFAC  =  1.00D-14  LOCALI  =  1.00D-09  EORDER  =  1.00D-04
 ENERGY  =  1.00D-10  ETEST   =  0.00D+00  EDENS   =  0.00D+00  THRDEDEF=  1.00D-06  GRADIENT=  1.00D-02  STEP    =  1.00D-03
 ORBITAL =  1.00D-10  CIVEC   =  1.00D-05  COEFF   =  1.00D-04  PRINTCI =  5.00D-02  PUNCHCI =  9.90D+01  OPTGRAD =  1.00D-06
 OPTENERG=  1.00D-06  OPTSTEP =  3.00D-04  THRGRAD =  1.00D-10  COMPRESS=  1.00D-13  VARMIN  =  1.00D-07  VARMAX  =  1.00D-03
 THRDOUB =  0.00D+00  THRDIV  =  1.00D-05  THRRED  =  1.00D-07  THRPSP  =  1.00D+00  THRDC   =  1.00D-10  THRCS   =  1.00D-10
 THRNRM  =  1.00D-08  THREQ   =  0.00D+00  THRDE   =  1.00D+00  THRREF  =  1.00D-05  SPARFAC =  1.00D+00  THRDLP  =  1.00D-07
 THRDIA  =  1.00D-10  THRDLS  =  1.00D-07  THRGPS  =  0.00D+00  THRKEX  =  0.00D+00  THRDIS  =  2.00D-01  THRVAR  =  1.00D-10
 THRLOC  =  1.00D-06  THRGAP  =  1.00D-06  THRLOCT = -1.00D+00  THRGAPT = -1.00D+00  THRORB  =  1.00D-06  THRMLTP =  0.00D+00
 THRCPQCI=  1.00D-10  KEXTA   =  0.00D+00  THRCOARS=  0.00D+00  SYMTOL  =  1.00D-06  GRADTOL =  1.00D-06  THROVL  =  1.00D-08
 THRORTH =  1.00D-08  GRID    =  1.00D-06  GRIDMAX =  1.00D-03  DTMAX   =  0.00D+00

 SETTING GEOMTYP        =    XYZ

 Variable memory set to 1000000000 words,  buffer space   230000 words

 SETTING BASIS          =    CC-PVDZ


 Recomputing integrals since basis changed


 Using spherical harmonics

 Library entry C      S cc-pVDZ              selected for orbital group  1
 Library entry C      P cc-pVDZ              selected for orbital group  1
 Library entry C      D cc-pVDZ              selected for orbital group  1
 Library entry O      S cc-pVDZ              selected for orbital group  2
 Library entry O      P cc-pVDZ              selected for orbital group  2
 Library entry O      D cc-pVDZ              selected for orbital group  2
 Library entry H      S cc-pVDZ              selected for orbital group  3
 Library entry H      P cc-pVDZ              selected for orbital group  3

1PROGRAM * SEWARD (Integral evaluation for generally contracted gaussian basis sets)     Author: Roland Lindh, 1990

 Geometry written to block  1 of record 700


 Point group  C1  



 ATOMIC COORDINATES

 NR  ATOM    CHARGE       X              Y              Z

   1  C       6.00    3.357976046    1.344348918   -0.090406887
   2  C       6.00    0.929463760   -0.113303378   -0.370813628
   3  C       6.00    0.850982531   -2.903196432    0.191706832
   4  O       8.00   -1.059792616    1.374200822    0.481205662
   5  O       8.00   -3.472969698    0.173920141   -0.228054854
   6  H       1.00    4.886238092    0.399651904   -1.154207580
   7  H       1.00    3.139302568    3.294195214   -0.804739378
   8  H       1.00    3.959622871    1.462726898    1.924292999
   9  H       1.00   -0.955076669   -3.744891010   -0.416210688
  10  H       1.00    2.421444191   -3.867791315   -0.788034698
  11  H       1.00    1.060305855   -3.247787477    2.257850618
  12  H       1.00   -3.755924126    1.044106860   -1.827585045

 Bond lengths in Bohr (Angstrom)

 1-2  2.846234368  1-6  2.087991677  1-7  2.088058806  1-8  2.105945840  2-3  2.847119917
     ( 1.506162359)     ( 1.104917608)     ( 1.104953131)     ( 1.114418542)     ( 1.506630971)

  2- 4  2.625975352   3- 9  2.083233858   3-10  2.087267731   3-11  2.105115054   4- 5  2.786960320
       ( 1.389606307)       ( 1.102399879)       ( 1.104534512)       ( 1.113978909)       ( 1.474795884)

  5-12  1.842765575
       ( 0.975149544)

 Bond angles

  1-2-3  120.39075208   1-2-4  108.92230933   2-1-6  110.03560862   2-1-7  110.80417870

  2- 1- 8  111.51830955   2- 3- 9  111.23253692   2- 3-10  109.83814241   2- 3-11  110.58390746

  2- 4- 5  109.23229059   3- 2- 4  118.03985942   4- 5-12   98.65488105   6- 1- 7  108.95648575

  6- 1- 8  107.68226203   7- 1- 8  107.74068805   9- 3-10  109.18396178   9- 3-11  107.84726929

 10- 3-11  108.07350683

 NUCLEAR CHARGE:                   41
 NUMBER OF PRIMITIVE AOS:         184
 NUMBER OF SYMMETRY AOS:          179
 NUMBER OF CONTRACTIONS:          105   ( 105A   )
 NUMBER OF CORE ORBITALS:           5   (   5A   )
 NUMBER OF VALENCE ORBITALS:       27   (  27A   )


 NUCLEAR REPULSION ENERGY  183.22152539


 Eigenvalues of metric

         1 0.345E-02 0.435E-02 0.105E-01 0.141E-01 0.182E-01 0.214E-01 0.331E-01 0.346E-01


 Contracted 2-electron integrals neglected if value below      1.0D-16
 AO integral compression algorithm  1   Integral accuracy      1.0D-16

     127.402 MB (compressed) written to integral file ( 93.4%)

     Node minimum: 40.108 MB, node maximum: 45.613 MB


 NUMBER OF SORTED TWO-ELECTRON INTEGRALS:    5164320.     BUFFER LENGTH:  32768
 NUMBER OF SEGMENTS:   1  SEGMENT LENGTH:    5164320      RECORD LENGTH: 524288

 Memory used in sort:       5.72 MW

 SORT1 READ    17075251. AND WROTE     5135907. INTEGRALS IN     15 RECORDS. CPU TIME:     0.31 SEC, REAL TIME:     0.35 SEC
 SORT2 READ    15396632. AND WROTE    15487395. INTEGRALS IN    522 RECORDS. CPU TIME:     0.09 SEC, REAL TIME:     0.13 SEC

 Node minimum:     5160610.  Node maximum:     5164320. integrals

 OPERATOR DM      FOR CENTER  0  COORDINATES:    0.000000    0.000000    0.000000


 **********************************************************************************************************************************
 DATASETS  * FILE   NREC   LENGTH (MB)   RECORD NAMES
              1      18        3.17       500      610      700      900      950      970     1000      129      960     1100   
                                          VAR    BASINP    GEOM    SYMINP    ZMAT    AOBASIS   BASIS     P2S    ABASIS      S 
                                         1400     1410     1200     1210     1080     1600     1650     1700   
                                           T        V       H0       H01     AOSYM     SMH    MOLCAS    OPER   

 PROGRAMS   *        TOTAL       INT
 CPU TIMES  *         1.24      1.17
 REAL TIME  *         1.65 SEC
 DISK USED  *       307.23 MB      
 GA USED    *         0.00 MB       (max)       0.00 MB       (current)
 **********************************************************************************************************************************

1PROGRAM * RHF-SCF (OPEN SHELL)       Authors: W. Meyer, H.-J. Werner


 NUMBER OF ELECTRONS:      21+   20-    SPACE SYMMETRY=1    SPIN SYMMETRY: Doublet 
 CONVERGENCE THRESHOLDS:    1.00E-10 (Density)    1.00E-11 (Energy)
 MAX. NUMBER OF ITERATIONS:      200
 INTERPOLATION TYPE:            DIIS
 INTERPOLATION STEPS:              2 (START)      1 (STEP)
 LEVEL SHIFTS:                 -0.30 (CLOSED)  0.00 (OPEN) 



 Orbital guess generated from atomic densities. Full valence occupancy:   32

 Molecular orbital dump at record        2100.2

 ITERATION    DDIFF          GRAD             ENERGY        2-EL.EN.            DIPOLE MOMENTS         DIIS
    1      0.000D+00      0.000D+00      -267.17818179    555.820075    0.57042    0.05157   -0.74839    0
    2      0.000D+00      0.617D-02      -267.24885858    555.739376    0.41395   -0.12976   -0.59869    1
    3      0.927D-02      0.214D-02      -267.26104050    555.657718    0.39370   -0.05798   -0.62618    2
    4      0.336D-02      0.912D-03      -267.26465165    555.809813    0.37908   -0.09826   -0.64265    3
    5      0.186D-02      0.364D-03      -267.26522207    555.781222    0.38166   -0.09182   -0.63570    4
    6      0.793D-03      0.110D-03      -267.26529885    555.767457    0.37994   -0.09163   -0.63845    5
    7      0.278D-03      0.512D-04      -267.26531912    555.764450    0.37924   -0.09138   -0.63795    6
    8      0.144D-03      0.273D-04      -267.26532522    555.762498    0.37952   -0.09150   -0.63816    7
    9      0.928D-04      0.115D-04      -267.26532614    555.762819    0.37971   -0.09146   -0.63792    8
   10      0.367D-04      0.502D-05      -267.26532629    555.763431    0.37997   -0.09147   -0.63798    9
   11      0.147D-04      0.197D-05      -267.26532632    555.763272    0.38002   -0.09147   -0.63799    9
   12      0.652D-05      0.672D-06      -267.26532632    555.763406    0.38004   -0.09147   -0.63798    9
   13      0.228D-05      0.227D-06      -267.26532632    555.763322    0.38004   -0.09147   -0.63798    9
   14      0.634D-06      0.762D-07      -267.26532632    555.763331    0.38004   -0.09147   -0.63798    9
   15      0.194D-06      0.303D-07      -267.26532632    555.763327    0.38004   -0.09147   -0.63798    9
   16      0.833D-07      0.147D-07      -267.26532632    555.763328    0.38004   -0.09147   -0.63798    9
   17      0.380D-07      0.762D-08      -267.26532632    555.763328    0.38004   -0.09147   -0.63798    9
   18      0.227D-07      0.345D-08      -267.26532632    555.763328    0.38004   -0.09147   -0.63798    9
   19      0.115D-07      0.134D-08      -267.26532632    555.763328    0.38004   -0.09147   -0.63798    9
   20      0.446D-08      0.573D-09      -267.26532632    555.763328    0.38004   -0.09147   -0.63798    9
   21      0.167D-08      0.290D-09      -267.26532632    555.763328    0.38004   -0.09147   -0.63798    9
   22      0.764D-09      0.163D-09      -267.26532632    555.763328    0.38004   -0.09147   -0.63798    9
   23      0.451D-09      0.804D-10      -267.26532632    555.763328    0.38004   -0.09147   -0.63798    9
   24      0.266D-09      0.320D-10      -267.26532632    555.763328    0.38004   -0.09147   -0.63798    9
   25      0.942D-10      0.131D-10      -267.26532632    555.763328    0.38004   -0.09147   -0.63798    0

 Final alpha occupancy:  21
 Final beta  occupancy:  20

 !RHF STATE 1.1 Energy               -267.265326324886
 Nuclear energy                       183.22152539
 One-electron energy                 -728.36851587
 Two-electron energy                  277.88166416
 Virial quotient                       -1.00155914
 !RHF STATE 1.1 Dipole moment           0.38004095    -0.09146962    -0.63798118
 Dipole moment /Debye                   0.96590447    -0.23247735    -1.62148021

 Orbital energies:

         1.1          2.1          3.1          4.1          5.1          6.1          7.1          8.1          9.1         10.1
    -20.630448   -20.628922   -11.279220   -11.237935   -11.232108    -1.470082    -1.240587    -1.023224    -0.945355    -0.768365

        11.1         12.1         13.1         14.1         15.1         16.1         17.1         18.1         19.1         20.1
     -0.704497    -0.643045    -0.626738    -0.588653    -0.545123    -0.543515    -0.538911    -0.517028    -0.492982    -0.469778

        21.1         22.1         23.1
     -0.352154     0.181246     0.183517


 **********************************************************************************************************************************
 DATASETS  * FILE   NREC   LENGTH (MB)   RECORD NAMES
              1      18        3.17       500      610      700      900      950      970     1000      129      960     1100   
                                          VAR    BASINP    GEOM    SYMINP    ZMAT    AOBASIS   BASIS     P2S    ABASIS      S 
                                         1400     1410     1200     1210     1080     1600     1650     1700   
                                           T        V       H0       H01     AOSYM     SMH    MOLCAS    OPER   

              2       3        0.77       700     1000     2100   
                                         GEOM     BASIS     RHF  

 PROGRAMS   *        TOTAL       RHF       INT
 CPU TIMES  *         2.58      1.34      1.17
 REAL TIME  *         3.15 SEC
 DISK USED  *       323.80 MB      
 SF USED    *         0.04 MB      
 GA USED    *         0.00 MB       (max)       0.00 MB       (current)
 **********************************************************************************************************************************


1PROGRAM * CCSD (Unrestricted open-shell coupled cluster)     Authors: C. Hampel, H.-J. Werner, 1991, M. Deegan, P.J. Knowles, 1992


 Convergence thresholds:  THRVAR = 1.00D-08  THRDEN = 1.00D-10

 CCSD(T)     terms to be evaluated (factor= 1.000)


 Number of core orbitals:           5 (   5 )
 Number of closed-shell orbitals:  15 (  15 )
 Number of active  orbitals:        1 (   1 )
 Number of external orbitals:      84 (  84 )

 Memory could be reduced to 24.91 Mwords without degradation in triples

 Number of N-1 electron functions:              31
 Number of N-2 electron functions:             465
 Number of singly external CSFs:              2635
 Number of doubly external CSFs:           2537250
 Total number of CSFs:                     2539885

 Molecular orbitals read from record     2100.2  Type=RHF/CANONICAL (state 1.1)

 Integral transformation finished. Total CPU:   0.91 sec, npass=  1  Memory used:  12.63 MW

 Starting RMP2 calculation

 ITER.      SQ.NORM     CORR.ENERGY   TOTAL ENERGY   ENERGY CHANGE        DEN1      VAR(S)    VAR(P)  DIIS     TIME
   1      1.24307341    -0.78643956  -268.05176588    -0.78643956    -0.00305053  0.20D-04  0.11D-02  1  1     1.25
   2      1.24571585    -0.78972937  -268.05505569    -0.00328981    -0.00000475  0.54D-06  0.19D-05  2  2     1.52
   3      1.24578145    -0.78977146  -268.05509779    -0.00004209    -0.00000003  0.16D-07  0.68D-08  3  3     1.82
   4      1.24578241    -0.78977146  -268.05509779    -0.00000000    -0.00000000  0.27D-09  0.38D-10  4  4     2.14
   5      1.24578249    -0.78977150  -268.05509782    -0.00000003    -0.00000000  0.25D-11  0.65D-12  5  5     2.48
   6      1.24578251    -0.78977150  -268.05509783    -0.00000001    -0.00000000  0.28D-13  0.87D-14  6  6     2.84
   7      1.24578251    -0.78977150  -268.05509783     0.00000000    -0.00000000  0.47D-15  0.12D-15  6  1     3.21
   8      1.24578251    -0.78977150  -268.05509783     0.00000000    -0.00000000  0.60D-17  0.13D-17  6  2     3.57

 Norm of t1 vector:      0.03894823      S-energy:    -0.00227296      T1 diagnostic:  0.00055050
 Norm of t2 vector:      0.49423227      P-energy:    -0.78749854
                                         Alpha-Beta:  -0.59346252
                                         Alpha-Alpha: -0.10094997
                                         Beta-Beta:   -0.09308606

 Spin contamination <S**2-Sz**2-Sz>     0.00104092
  Reference energy                   -267.265326324886
  RHF-RMP2 correlation energy          -0.789771501545
 !RHF-RMP2 energy                    -268.055097826431

 Starting UCCSD calculation

 ITER.      SQ.NORM     CORR.ENERGY   TOTAL ENERGY   ENERGY CHANGE        DEN1      VAR(S)    VAR(P)  DIIS     TIME
   1      1.26284046    -0.80909620  -268.07442253    -0.80909620    -0.02516243  0.38D-02  0.59D-02  1  1    10.10
   2      1.29162445    -0.83651110  -268.10183743    -0.02741490    -0.00201240  0.22D-03  0.66D-03  2  2    16.52
   3      1.30157204    -0.84101170  -268.10633803    -0.00450060    -0.00032480  0.19D-03  0.56D-04  3  3    22.22
   4      1.30648895    -0.84248978  -268.10781610    -0.00147807    -0.00007212  0.43D-04  0.14D-04  4  4    27.94
   5      1.30921996    -0.84287801  -268.10820433    -0.00038823    -0.00002369  0.19D-04  0.32D-05  5  5    33.70
   6      1.31116057    -0.84308260  -268.10840892    -0.00020459    -0.00000647  0.42D-05  0.12D-05  6  6    39.48
   7      1.31211145    -0.84314146  -268.10846778    -0.00005886    -0.00000208  0.14D-05  0.37D-06  6  2    45.80
   8      1.31255425    -0.84318422  -268.10851054    -0.00004276    -0.00000065  0.45D-06  0.11D-06  6  1    52.12
   9      1.31274011    -0.84318883  -268.10851515    -0.00000461    -0.00000022  0.15D-06  0.35D-07  6  4    58.45
  10      1.31280356    -0.84319177  -268.10851810    -0.00000294    -0.00000005  0.35D-07  0.95D-08  6  3    64.77
  11      1.31283314    -0.84319051  -268.10851683     0.00000126    -0.00000002  0.13D-07  0.28D-08  6  5    71.09
  12      1.31284355    -0.84319024  -268.10851657     0.00000026    -0.00000000  0.26D-08  0.96D-09  6  6    76.90
  13      1.31284240    -0.84318933  -268.10851565     0.00000092    -0.00000000  0.96D-09  0.29D-09  6  2    82.67
  14      1.31283719    -0.84318848  -268.10851481     0.00000085    -0.00000000  0.21D-09  0.68D-10  6  1    88.43
  15      1.31283311    -0.84318789  -268.10851422     0.00000059    -0.00000000  0.78D-10  0.19D-10  6  4    94.19
  16      1.31282992    -0.84318751  -268.10851383     0.00000038    -0.00000000  0.28D-10  0.63D-11  6  3    99.94
  17      1.31282772    -0.84318727  -268.10851360     0.00000024    -0.00000000  0.10D-10  0.24D-11  6  5   105.70
  18      1.31282681    -0.84318721  -268.10851354     0.00000006    -0.00000000  0.41D-11  0.87D-12  6  6   111.44
  19      1.31282620    -0.84318718  -268.10851350     0.00000003    -0.00000000  0.16D-11  0.37D-12  6  2   117.18
  20      1.31282587    -0.84318717  -268.10851349     0.00000001    -0.00000000  0.60D-12  0.13D-12  6  1   122.95
  21      1.31282571    -0.84318715  -268.10851348     0.00000001    -0.00000000  0.28D-12  0.58D-13  6  4   128.71
  22      1.31282559    -0.84318715  -268.10851347     0.00000001    -0.00000000  0.74D-13  0.22D-13  6  3   134.47
  23      1.31282553    -0.84318714  -268.10851347     0.00000000    -0.00000000  0.22D-13  0.63D-14  6  5   140.22
  24      1.31282552    -0.84318714  -268.10851347    -0.00000000    -0.00000000  0.68D-14  0.23D-14  6  6   146.00
  25      1.31282553    -0.84318715  -268.10851347    -0.00000000    -0.00000000  0.21D-14  0.53D-15  6  2   151.74
  26      1.31282554    -0.84318715  -268.10851347    -0.00000000    -0.00000000  0.77D-15  0.15D-15  6  1   157.49
  27      1.31282555    -0.84318715  -268.10851347    -0.00000000    -0.00000000  0.20D-15  0.63D-16  6  3   163.24
  28      1.31282555    -0.84318715  -268.10851347    -0.00000000    -0.00000000  0.30D-16  0.11D-16  6  4   169.02
  29      1.31282555    -0.84318715  -268.10851347    -0.00000000    -0.00000000  0.71D-17  0.30D-17  6  5   174.79
  30      1.31282555    -0.84318715  -268.10851347    -0.00000000    -0.00000000  0.15D-17  0.54D-18  6  6   180.56
  31      1.31282555    -0.84318715  -268.10851347    -0.00000000    -0.00000000  0.36D-18  0.11D-18  6  2   186.33

 Norm of t1 vector:      0.13875768      S-energy:    -0.00282304      T1 diagnostic:  0.01617299
                                                                       D1 diagnostic:  0.06280435
 Norm of t2 vector:      0.54182272      P-energy:    -0.84036410
                                         Alpha-Beta:  -0.66491363
                                         Alpha-Alpha: -0.09147803
                                         Beta-Beta:   -0.08397244

 Spin contamination <S**2-Sz**2-Sz>     0.00217514

 Memory could be reduced to 28.85 Mwords without degradation in triples
 

 RESULTS
 =======

  Reference energy                   -267.265326324886
  UCCSD singles energy                 -0.002823044222
  UCCSD pair energy                    -0.840364103437
  UCCSD correlation energy             -0.843187147658
  Triples (T) contribution             -0.024982124968
  Total correlation energy             -0.868169272627
 
  RHF-UCCSD energy                   -268.108513472545
  RHF-UCCSD[T] energy                -268.134831943272
  RHF-UCCSD-T energy                 -268.133073941718
 !RHF-UCCSD(T) energy                -268.133495597513

 Program statistics:

 Available memory in ccsd:               999997692
 Min. memory needed in ccsd:               7337057
 Max. memory used in ccsd:                10523002
 Max. memory used in cckext:              10867977 (31 integral passes)
 Max. memory used in cckint:              12633073 ( 1 integral passes)



 **********************************************************************************************************************************
 DATASETS  * FILE   NREC   LENGTH (MB)   RECORD NAMES
              1      18        3.17       500      610      700      900      950      970     1000      129      960     1100   
                                          VAR    BASINP    GEOM    SYMINP    ZMAT    AOBASIS   BASIS     P2S    ABASIS      S 
                                         1400     1410     1200     1210     1080     1600     1650     1700   
                                           T        V       H0       H01     AOSYM     SMH    MOLCAS    OPER   

              2       3        0.77       700     1000     2100   
                                         GEOM     BASIS     RHF  

 PROGRAMS   *        TOTAL  UCCSD(T)       RHF       INT
 CPU TIMES  *       233.91    231.33      1.34      1.17
 REAL TIME  *       242.86 SEC
 DISK USED  *         1.29 GB      
 SF USED    *       553.73 MB      
 GA USED    *         0.00 MB       (max)       0.00 MB       (current)
 **********************************************************************************************************************************

        UCCSD(T)        RHF-SCF 
   -268.13349560   -267.26532632
 **********************************************************************************************************************************
 Variable memory released
