
    -----------------------------------------------------------------------
          Psi4: An Open-Source Ab Initio Electronic Structure Package
                               Psi4 1.4a2.dev478 

                         Git: Rev {master} f722895 dirty


    R. M. Parrish, L. A. Burns, D. G. A. Smith, A. C. Simmonett,
    A. E. DePrince III, E. G. Hohenstein, U. Bozkaya, A. Yu. Sokolov,
    R. Di Remigio, R. M. Richard, J. F. Gonthier, A. M. James,
    H. R. McAlexander, A. Kumar, M. Saitow, X. Wang, B. P. Pritchard,
    P. Verma, H. F. Schaefer III, K. Patkowski, R. A. King, E. F. Valeev,
    F. A. Evangelista, J. M. Turney, T. D. Crawford, and C. D. Sherrill,
    J. Chem. Theory Comput. 13(7) pp 3185--3197 (2017).
    (doi: 10.1021/acs.jctc.7b00174)


                         Additional Contributions by
    P. Kraus, H. Kruse, M. H. Lechner, M. C. Schieber, R. A. Shaw,
    A. Alenaizan, R. Galvelis, Z. L. Glick, S. Lehtola, and J. P. Misiewicz

    -----------------------------------------------------------------------


    Psi4 started on: Friday, 05 June 2020 11:41AM

    Process ID: 3085
    Host:       n056
    PSIDATADIR: /opt/psi/4/master/share/psi4
    Memory:     500.0 MiB
    Threads:    4
    
  ==> Input File <==

--------------------------------------------------------------------------
set memory 40Gb

molecule {
    C   -1.169969463277   -0.774075714550   -0.000125580240
    H   -1.617202611977   -1.211544387650   -0.890367767540
    H   -1.617274396477   -1.211731322050    0.889988080060
    C   -1.170087777377    0.773896028650    0.000044791660
    H   -1.617450892977    1.211295070450    0.890255761560
    H   -1.617399631177    1.213892627517   -0.890135955783
    C    0.356566718293    0.920040664407    0.000069367464
    H    0.840791589398    1.891615620524    0.000142977859
    O    0.760951547759    0.000108295876   -1.017879161246
    C    0.357038554537   -0.920155818913   -0.000042451433
    H    0.841762209416   -1.891482001144   -0.000084267622
    O    0.760885522671   -0.000015987144    1.017932254135
}

set {
    e_convergence 10
    d_convergence 10
    freeze_core True
    basis_guess True
    cc_type conv
    maxiter 300
}

E = energy('mp2/heavy-aug-cc-pV(Q+d)Z')
psi4.print_out("\n========================OPTAVC-XTPL==========================\n\n")
psi4.print_out("MP2/QZ correlation energy {}\n".format(variable("MP2 CORRELATION ENERGY")))
psi4.print_out("SCF/QZ reference energy {}\n".format(variable("CURRENT REFERENCE ENERGY")))
psi4.print_out("\n\n=============================================================\n")

E = energy('mp2/heavy-aug-cc-pV(T+d)Z')
psi4.print_out("\n========================OPTAVC-XTPL==========================\n\n")
psi4.print_out("MP2/TZ correlation energy {}".format(variable("MP2 CORRELATION ENERGY")))
psi4.print_out("\n\n=============================================================\n")
--------------------------------------------------------------------------

Scratch directory: /tmp/

Scratch directory: /tmp/
    SCF Algorithm Type (re)set to DF.

*** tstart() called on n056
*** at Fri Jun  5 11:41:50 2020


  //>>>>>>>>>>>>>>>>>>>>>>>>>>>>>>>>>>>//
  //      Guess SCF, pcseg-0 Basis     //
  //<<<<<<<<<<<<<<<<<<<<<<<<<<<<<<<<<<<//

   => Loading Basis Set <=

    Name: PCSEG-0
    Role: ORBITAL
    Keyword: BASIS
    atoms 1, 4, 7, 10     entry C          line    71 file /opt/psi/4/master/share/psi4/basis/pcseg-0.gbs 
    atoms 2-3, 5-6, 8, 11 entry H          line    13 file /opt/psi/4/master/share/psi4/basis/pcseg-0.gbs 
    atoms 9, 12           entry O          line   103 file /opt/psi/4/master/share/psi4/basis/pcseg-0.gbs 


         ---------------------------------------------------------
                           SCF Castup computation                  
         ---------------------------------------------------------
                                   SCF
               by Justin Turney, Rob Parrish, Andy Simmonett
                          and Daniel G. A. Smith
                              RHF Reference
                        4 Threads,    500 MiB Core
         ---------------------------------------------------------

  ==> Geometry <==

    Molecular point group: c1
    Full point group: C1

    Geometry (in Angstrom), charge = 0, multiplicity = 1:

       Center              X                  Y                   Z               Mass       
    ------------   -----------------  -----------------  -----------------  -----------------
         C           -1.169969463277    -0.774075714550    -0.000125580240    12.000000000000
         H           -1.617202611977    -1.211544387650    -0.890367767540     1.007825032230
         H           -1.617274396477    -1.211731322050     0.889988080060     1.007825032230
         C           -1.170087777377     0.773896028650     0.000044791660    12.000000000000
         H           -1.617450892977     1.211295070450     0.890255761560     1.007825032230
         H           -1.617399631177     1.213892627517    -0.890135955783     1.007825032230
         C            0.356566718293     0.920040664407     0.000069367464    12.000000000000
         H            0.840791589398     1.891615620524     0.000142977859     1.007825032230
         O            0.760951547759     0.000108295876    -1.017879161246    15.994914619570
         C            0.357038554537    -0.920155818913    -0.000042451433    12.000000000000
         H            0.841762209416    -1.891482001144    -0.000084267622     1.007825032230
         O            0.760885522671    -0.000015987144     1.017932254135    15.994914619570

  Running in c1 symmetry.

  Rotational constants: A =      0.20028  B =      0.16407  C =      0.14757 [cm^-1]
  Rotational constants: A =   6004.24708  B =   4918.80154  C =   4424.06236 [MHz]
  Nuclear repulsion =  258.059050488409241

  Charge       = 0
  Multiplicity = 1
  Electrons    = 46
  Nalpha       = 23
  Nbeta        = 23

  ==> Algorithm <==

  SCF Algorithm Type is DF.
  DIIS enabled.
  MOM disabled.
  Fractional occupation disabled.
  Guess Type is SAD.
  Energy threshold   = 1.00e-10
  Density threshold  = 1.00e-10
  Integral threshold = 0.00e+00

  ==> Primary Basis <==

  Basis Set: PCSEG-0
    Blend: PCSEG-0
    Number of shells: 42
    Number of basis function: 66
    Number of Cartesian functions: 66
    Spherical Harmonics?: true
    Max angular momentum: 1

   => Loading Basis Set <=

    Name: (PCSEG-0 AUX)
    Role: JKFIT
    Keyword: DF_BASIS_SCF
    atoms 1, 4, 7, 10     entry C          line   198 file /opt/psi/4/master/share/psi4/basis/def2-universal-jkfit.gbs 
    atoms 2-3, 5-6, 8, 11 entry H          line    18 file /opt/psi/4/master/share/psi4/basis/def2-universal-jkfit.gbs 
    atoms 9, 12           entry O          line   318 file /opt/psi/4/master/share/psi4/basis/def2-universal-jkfit.gbs 

  ==> Integral Setup <==

  ==> DiskDFJK: Density-Fitted J/K Matrices <==

    J tasked:                  Yes
    K tasked:                  Yes
    wK tasked:                  No
    OpenMP threads:              4
    Integrals threads:           4
    Memory [MiB]:              375
    Algorithm:                Core
    Integral Cache:           NONE
    Schwarz Cutoff:          1E-12
    Fitting Condition:       1E-10

   => Auxiliary Basis Set <=

  Basis Set: (PCSEG-0 AUX)
    Blend: DEF2-UNIVERSAL-JKFIT
    Number of shells: 186
    Number of basis function: 562
    Number of Cartesian functions: 662
    Spherical Harmonics?: true
    Max angular momentum: 4

  Minimum eigenvalue in the overlap matrix is 1.2768216796E-03.
  Reciprocal condition number of the overlap matrix is 2.1020923545E-04.
    Using symmetric orthogonalization.

  ==> Pre-Iterations <==

  SCF Guess: Superposition of Atomic Densities via on-the-fly atomic UHF (no occupation information).

   -------------------------
    Irrep   Nso     Nmo    
   -------------------------
     A         66      66 
   -------------------------
    Total      66      66
   -------------------------

  ==> Iterations <==

                           Total Energy        Delta E     RMS |[F,P]|

   @DF-RHF iter SAD:  -303.78279183072493   -3.03783e+02   0.00000e+00 
   @DF-RHF iter   1:  -303.56519952450515    2.17592e-01   7.20869e-03 DIIS
   @DF-RHF iter   2:  -303.66408655676264   -9.88870e-02   3.86664e-03 DIIS
   @DF-RHF iter   3:  -303.68843435416426   -2.43478e-02   6.09704e-04 DIIS
   @DF-RHF iter   4:  -303.68957432201250   -1.13997e-03   1.89590e-04 DIIS
   @DF-RHF iter   5:  -303.68966266508465   -8.83431e-05   4.01187e-05 DIIS
   @DF-RHF iter   6:  -303.68966978233072   -7.11725e-06   8.09202e-06 DIIS
   @DF-RHF iter   7:  -303.68967015391860   -3.71588e-07   1.67444e-06 DIIS
   @DF-RHF iter   8:  -303.68967016704755   -1.31290e-08   5.24008e-07 DIIS
   @DF-RHF iter   9:  -303.68967016838576   -1.33821e-09   1.00053e-07 DIIS
   @DF-RHF iter  10:  -303.68967016844903   -6.32667e-11   1.69327e-08 DIIS
   @DF-RHF iter  11:  -303.68967016845079   -1.76215e-12   2.60406e-09 DIIS
   @DF-RHF iter  12:  -303.68967016845107   -2.84217e-13   8.24738e-10 DIIS
   @DF-RHF iter  13:  -303.68967016845102    5.68434e-14   2.65639e-10 DIIS
   @DF-RHF iter  14:  -303.68967016845073    2.84217e-13   5.34619e-11 DIIS
  Energy and wave function converged.


  ==> Post-Iterations <==

    Orbital Energies [Eh]
    ---------------------

    Doubly Occupied:                                                      

       1A    -20.583842     2A    -20.583774     3A    -11.368411  
       4A    -11.368373     5A    -11.254808     6A    -11.254400  
       7A     -1.548730     8A     -1.317310     9A     -1.091193  
      10A     -1.011026    11A     -0.822256    12A     -0.787935  
      13A     -0.770584    14A     -0.684657    15A     -0.664435  
      16A     -0.661577    17A     -0.555075    18A     -0.534594  
      19A     -0.528150    20A     -0.525252    21A     -0.518180  
      22A     -0.467587    23A     -0.441359  

    Virtual:                                                              

      24A      0.203654    25A      0.232796    26A      0.236634  
      27A      0.242140    28A      0.254664    29A      0.267639  
      30A      0.315996    31A      0.351966    32A      0.354588  
      33A      0.388136    34A      0.408837    35A      0.474139  
      36A      0.575758    37A      0.796113    38A      0.799740  
      39A      0.820868    40A      0.924809    41A      0.934029  
      42A      0.944497    43A      0.951655    44A      1.004177  
      45A      1.005391    46A      1.033523    47A      1.061421  
      48A      1.071804    49A      1.136513    50A      1.149911  
      51A      1.171635    52A      1.172407    53A      1.210666  
      54A      1.239060    55A      1.422288    56A      1.453987  
      57A      1.484925    58A      1.525925    59A      1.692296  
      60A      1.710130    61A      1.929855    62A      1.952667  
      63A      2.144746    64A      2.303169    65A      2.379029  
      66A      2.449460  

    Final Occupation by Irrep:
              A 
    DOCC [    23 ]

  @DF-RHF Final Energy:  -303.68967016845073

   => Energetics <=

    Nuclear Repulsion Energy =            258.0590504884092411
    One-Electron Energy =                -924.8104252034153205
    Two-Electron Energy =                 363.0617045465552906
    Total Energy =                       -303.6896701684507320

Computation Completed

  //>>>>>>>>>>>>>>>>>>>>>>>>>>>>>>>>>>>//
  //                SCF                //
  //<<<<<<<<<<<<<<<<<<<<<<<<<<<<<<<<<<<//

   => Loading Basis Set <=

    Name: HEAVY-AUG-CC-PV(Q+D)Z
    Role: ORBITAL
    Keyword: BASIS
    atoms 1, 4, 7, 10     entry C          line   333 file /opt/psi/4/master/share/psi4/basis/heavy-aug-cc-pv_qpd_z.gbs 
    atoms 2-3, 5-6, 8, 11 entry H          line    86 file /opt/psi/4/master/share/psi4/basis/heavy-aug-cc-pv_qpd_z.gbs 
    atoms 9, 12           entry O          line   453 file /opt/psi/4/master/share/psi4/basis/heavy-aug-cc-pv_qpd_z.gbs 


         ---------------------------------------------------------
                                   SCF
               by Justin Turney, Rob Parrish, Andy Simmonett
                          and Daniel G. A. Smith
                              RHF Reference
                        4 Threads,    500 MiB Core
         ---------------------------------------------------------

  ==> Geometry <==

    Molecular point group: c1
    Full point group: C1

    Geometry (in Angstrom), charge = 0, multiplicity = 1:

       Center              X                  Y                   Z               Mass       
    ------------   -----------------  -----------------  -----------------  -----------------
         C           -1.169969463277    -0.774075714550    -0.000125580240    12.000000000000
         H           -1.617202611977    -1.211544387650    -0.890367767540     1.007825032230
         H           -1.617274396477    -1.211731322050     0.889988080060     1.007825032230
         C           -1.170087777377     0.773896028650     0.000044791660    12.000000000000
         H           -1.617450892977     1.211295070450     0.890255761560     1.007825032230
         H           -1.617399631177     1.213892627517    -0.890135955783     1.007825032230
         C            0.356566718293     0.920040664407     0.000069367464    12.000000000000
         H            0.840791589398     1.891615620524     0.000142977859     1.007825032230
         O            0.760951547759     0.000108295876    -1.017879161246    15.994914619570
         C            0.357038554537    -0.920155818913    -0.000042451433    12.000000000000
         H            0.841762209416    -1.891482001144    -0.000084267622     1.007825032230
         O            0.760885522671    -0.000015987144     1.017932254135    15.994914619570

  Running in c1 symmetry.

  Rotational constants: A =      0.20028  B =      0.16407  C =      0.14757 [cm^-1]
  Rotational constants: A =   6004.24708  B =   4918.80154  C =   4424.06236 [MHz]
  Nuclear repulsion =  258.059050488409241

  Charge       = 0
  Multiplicity = 1
  Electrons    = 46
  Nalpha       = 23
  Nbeta        = 23

  ==> Algorithm <==

  SCF Algorithm Type is DF.
  DIIS enabled.
  MOM disabled.
  Fractional occupation disabled.
  Guess Type is SAD.
  Energy threshold   = 1.00e-10
  Density threshold  = 1.00e-10
  Integral threshold = 0.00e+00

  ==> Primary Basis <==

  Basis Set: HEAVY-AUG-CC-PV(Q+D)Z
    Blend: HEAVY-AUG-CC-PV(Q+D)Z
    Number of shells: 180
    Number of basis function: 660
    Number of Cartesian functions: 840
    Spherical Harmonics?: true
    Max angular momentum: 4

   => Loading Basis Set <=

    Name: (HEAVY-AUG-CC-PV(Q+D)Z AUX)
    Role: JKFIT
    Keyword: DF_BASIS_SCF
    atoms 1, 4, 7, 10     entry C          line   214 file /opt/psi/4/master/share/psi4/basis/heavy-aug-cc-pvqz-jkfit.gbs 
    atoms 2-3, 5-6, 8, 11 entry H          line   116 file /opt/psi/4/master/share/psi4/basis/heavy-aug-cc-pvqz-jkfit.gbs 
    atoms 9, 12           entry O          line   354 file /opt/psi/4/master/share/psi4/basis/heavy-aug-cc-pvqz-jkfit.gbs 


  Computing basis projection from PCSEG-0 to HEAVY-AUG-CC-PV(Q+D)Z

  ==> Integral Setup <==

  ==> DiskDFJK: Density-Fitted J/K Matrices <==

    J tasked:                  Yes
    K tasked:                  Yes
    wK tasked:                  No
    OpenMP threads:              4
    Integrals threads:           4
    Memory [MiB]:              375
    Algorithm:                Disk
    Integral Cache:           NONE
    Schwarz Cutoff:          1E-12
    Fitting Condition:       1E-10

   => Auxiliary Basis Set <=

  Basis Set: (HEAVY-AUG-CC-PV(Q+D)Z AUX)
    Blend: HEAVY-AUG-CC-PVQZ-JKFIT
    Number of shells: 282
    Number of basis function: 1158
    Number of Cartesian functions: 1584
    Spherical Harmonics?: true
    Max angular momentum: 5

  Minimum eigenvalue in the overlap matrix is 1.0736131670E-06.
  Reciprocal condition number of the overlap matrix is 6.8736644759E-08.
    Using symmetric orthogonalization.

  ==> Pre-Iterations <==

  SCF Guess: Orbitals guess was supplied from a previous computation.

   -------------------------
    Irrep   Nso     Nmo    
   -------------------------
     A        660     660 
   -------------------------
    Total     660     660
   -------------------------

  ==> Iterations <==

                           Total Energy        Delta E     RMS |[F,P]|

   @DF-RHF iter   0:  -304.22022301246898   -3.04220e+02   4.49018e-03 
   @DF-RHF iter   1:  -304.73496827753416   -5.14745e-01   3.39665e-04 DIIS
   @DF-RHF iter   2:  -304.75112715996733   -1.61589e-02   1.55051e-04 DIIS
   @DF-RHF iter   3:  -304.75504910334632   -3.92194e-03   2.79093e-05 DIIS
   @DF-RHF iter   4:  -304.75532256904330   -2.73466e-04   7.96063e-06 DIIS
   @DF-RHF iter   5:  -304.75534379507360   -2.12260e-05   3.36928e-06 DIIS
   @DF-RHF iter   6:  -304.75534705590468   -3.26083e-06   8.32299e-07 DIIS
   @DF-RHF iter   7:  -304.75534733930982   -2.83405e-07   1.75583e-07 DIIS
   @DF-RHF iter   8:  -304.75534735315881   -1.38490e-08   4.59948e-08 DIIS
   @DF-RHF iter   9:  -304.75534735419984   -1.04103e-09   1.49564e-08 DIIS
   @DF-RHF iter  10:  -304.75534735428886   -8.90168e-11   3.66436e-09 DIIS
   @DF-RHF iter  11:  -304.75534735429608   -7.21911e-12   9.21244e-10 DIIS
   @DF-RHF iter  12:  -304.75534735429699   -9.09495e-13   2.67817e-10 DIIS
   @DF-RHF iter  13:  -304.75534735429767   -6.82121e-13   5.45059e-11 DIIS
  Energy and wave function converged.


  ==> Post-Iterations <==

    Orbital Energies [Eh]
    ---------------------

    Doubly Occupied:                                                      

       1A    -20.564296     2A    -20.564257     3A    -11.346903  
       4A    -11.346853     5A    -11.235226     6A    -11.234650  
       7A     -1.500705     8A     -1.296009     9A     -1.066619  
      10A     -0.989835    11A     -0.810452    12A     -0.787473  
      13A     -0.749057    14A     -0.676479    15A     -0.657259  
      16A     -0.645296    17A     -0.537658    18A     -0.525333  
      19A     -0.519534    20A     -0.511658    21A     -0.508619  
      22A     -0.460235    23A     -0.431564  

    Virtual:                                                              

      24A      0.041676    25A      0.042966    26A      0.050513  
      27A      0.062650    28A      0.063959    29A      0.079817  
      30A      0.080057    31A      0.083466    32A      0.101523  
      33A      0.110291    34A      0.111774    35A      0.112233  
      36A      0.139394    37A      0.151957    38A      0.166540  
      39A      0.171523    40A      0.178356    41A      0.178842  
      42A      0.188741    43A      0.188992    44A      0.199222  
      45A      0.207571    46A      0.226252    47A      0.227054  
      48A      0.230163    49A      0.258086    50A      0.261573  
      51A      0.270697    52A      0.271381    53A      0.272946  
      54A      0.287066    55A      0.288274    56A      0.291615  
      57A      0.301310    58A      0.316692    59A      0.319872  
      60A      0.325892    61A      0.333511    62A      0.338448  
      63A      0.356655    64A      0.358169    65A      0.370108  
      66A      0.381341    67A      0.388259    68A      0.390854  
      69A      0.391739    70A      0.392723    71A      0.399318  
      72A      0.399403    73A      0.413702    74A      0.420629  
      75A      0.421985    76A      0.440193    77A      0.452919  
      78A      0.457642    79A      0.465839    80A      0.495052  
      81A      0.517080    82A      0.518883    83A      0.523891  
      84A      0.528046    85A      0.550640    86A      0.572873  
      87A      0.575688    88A      0.586252    89A      0.590244  
      90A      0.598508    91A      0.600865    92A      0.614750  
      93A      0.629649    94A      0.642222    95A      0.656509  
      96A      0.659749    97A      0.686975    98A      0.690263  
      99A      0.697224   100A      0.704713   101A      0.716271  
     102A      0.721657   103A      0.735161   104A      0.744930  
     105A      0.759923   106A      0.766584   107A      0.790048  
     108A      0.791515   109A      0.794823   110A      0.796291  
     111A      0.828646   112A      0.832234   113A      0.833882  
     114A      0.850069   115A      0.860576   116A      0.876224  
     117A      0.885285   118A      0.898040   119A      0.920653  
     120A      0.939442   121A      0.948128   122A      0.960278  
     123A      0.960809   124A      0.987356   125A      1.002353  
     126A      1.010041   127A      1.012665   128A      1.017622  
     129A      1.034968   130A      1.035276   131A      1.047523  
     132A      1.060655   133A      1.071467   134A      1.074824  
     135A      1.098181   136A      1.114396   137A      1.129168  
     138A      1.140911   139A      1.154389   140A      1.160436  
     141A      1.160926   142A      1.166907   143A      1.167409  
     144A      1.177484   145A      1.190989   146A      1.198580  
     147A      1.209781   148A      1.222592   149A      1.230988  
     150A      1.235161   151A      1.238383   152A      1.240263  
     153A      1.246842   154A      1.276581   155A      1.278327  
     156A      1.289210   157A      1.289654   158A      1.306492  
     159A      1.315388   160A      1.329653   161A      1.371450  
     162A      1.373692   163A      1.410024   164A      1.411076  
     165A      1.436238   166A      1.442531   167A      1.459592  
     168A      1.469880   169A      1.477001   170A      1.487218  
     171A      1.490660   172A      1.509960   173A      1.525615  
     174A      1.534691   175A      1.545059   176A      1.594707  
     177A      1.595375   178A      1.620286   179A      1.622882  
     180A      1.626176   181A      1.626559   182A      1.646592  
     183A      1.684266   184A      1.686617   185A      1.701436  
     186A      1.724002   187A      1.727734   188A      1.734290  
     189A      1.754689   190A      1.777236   191A      1.779371  
     192A      1.813854   193A      1.867319   194A      1.875295  
     195A      1.887279   196A      1.898789   197A      1.909144  
     198A      1.928008   199A      1.960620   200A      1.968515  
     201A      1.998667   202A      2.000476   203A      2.017368  
     204A      2.022264   205A      2.026912   206A      2.029905  
     207A      2.035602   208A      2.038954   209A      2.045022  
     210A      2.106179   211A      2.115978   212A      2.126264  
     213A      2.142191   214A      2.146077   215A      2.173557  
     216A      2.189841   217A      2.190093   218A      2.212286  
     219A      2.255171   220A      2.261669   221A      2.270442  
     222A      2.296234   223A      2.301679   224A      2.309524  
     225A      2.339305   226A      2.341933   227A      2.362289  
     228A      2.364452   229A      2.366230   230A      2.377027  
     231A      2.390799   232A      2.400806   233A      2.407213  
     234A      2.423378   235A      2.442702   236A      2.448327  
     237A      2.460428   238A      2.487703   239A      2.492513  
     240A      2.518667   241A      2.527614   242A      2.536826  
     243A      2.547319   244A      2.561369   245A      2.590079  
     246A      2.594484   247A      2.622032   248A      2.634661  
     249A      2.634938   250A      2.648608   251A      2.666458  
     252A      2.683335   253A      2.701567   254A      2.719675  
     255A      2.734161   256A      2.735157   257A      2.753974  
     258A      2.766329   259A      2.766597   260A      2.802188  
     261A      2.807251   262A      2.807632   263A      2.835481  
     264A      2.861863   265A      2.870108   266A      2.923701  
     267A      2.941266   268A      2.945560   269A      2.970757  
     270A      2.977426   271A      2.988942   272A      2.992694  
     273A      3.010276   274A      3.033621   275A      3.043695  
     276A      3.051769   277A      3.078410   278A      3.083512  
     279A      3.083685   280A      3.106302   281A      3.111396  
     282A      3.137747   283A      3.148564   284A      3.156277  
     285A      3.174928   286A      3.190244   287A      3.229313  
     288A      3.249903   289A      3.260133   290A      3.270331  
     291A      3.291311   292A      3.297638   293A      3.322548  
     294A      3.364185   295A      3.368476   296A      3.400764  
     297A      3.403317   298A      3.406606   299A      3.434355  
     300A      3.456965   301A      3.464988   302A      3.480861  
     303A      3.503459   304A      3.523520   305A      3.536957  
     306A      3.553848   307A      3.574542   308A      3.599537  
     309A      3.613906   310A      3.619452   311A      3.641446  
     312A      3.664416   313A      3.693844   314A      3.706963  
     315A      3.716096   316A      3.748916   317A      3.754535  
     318A      3.757657   319A      3.809846   320A      3.836509  
     321A      3.846279   322A      3.847038   323A      3.876980  
     324A      3.909048   325A      3.910633   326A      3.921974  
     327A      3.951746   328A      3.964475   329A      3.984790  
     330A      4.043087   331A      4.048542   332A      4.051471  
     333A      4.062655   334A      4.085661   335A      4.100436  
     336A      4.121023   337A      4.139615   338A      4.157885  
     339A      4.172919   340A      4.203616   341A      4.206040  
     342A      4.219929   343A      4.243308   344A      4.250935  
     345A      4.276862   346A      4.295958   347A      4.316677  
     348A      4.336962   349A      4.340028   350A      4.364702  
     351A      4.408682   352A      4.435518   353A      4.446853  
     354A      4.457755   355A      4.470393   356A      4.490333  
     357A      4.500313   358A      4.513171   359A      4.525689  
     360A      4.542118   361A      4.570975   362A      4.598144  
     363A      4.637847   364A      4.662179   365A      4.676461  
     366A      4.698736   367A      4.699392   368A      4.707817  
     369A      4.719772   370A      4.747328   371A      4.758467  
     372A      4.763082   373A      4.789040   374A      4.830924  
     375A      4.835598   376A      4.835754   377A      4.848707  
     378A      4.860985   379A      4.913505   380A      4.944902  
     381A      4.988856   382A      5.007045   383A      5.009940  
     384A      5.035513   385A      5.061781   386A      5.124645  
     387A      5.172033   388A      5.175489   389A      5.185659  
     390A      5.245463   391A      5.255409   392A      5.258058  
     393A      5.285538   394A      5.295954   395A      5.311236  
     396A      5.347954   397A      5.368008   398A      5.391656  
     399A      5.424143   400A      5.503514   401A      5.525606  
     402A      5.555303   403A      5.596658   404A      5.637721  
     405A      5.660312   406A      5.660879   407A      5.677823  
     408A      5.794336   409A      5.837801   410A      5.838797  
     411A      5.844701   412A      5.909743   413A      5.976448  
     414A      6.039231   415A      6.107965   416A      6.148334  
     417A      6.191885   418A      6.220895   419A      6.234551  
     420A      6.242259   421A      6.296188   422A      6.339262  
     423A      6.344242   424A      6.348851   425A      6.372071  
     426A      6.399333   427A      6.422585   428A      6.463886  
     429A      6.489827   430A      6.496574   431A      6.514019  
     432A      6.526971   433A      6.539474   434A      6.582505  
     435A      6.586715   436A      6.618819   437A      6.642138  
     438A      6.648026   439A      6.655517   440A      6.689975  
     441A      6.701706   442A      6.705471   443A      6.716915  
     444A      6.755336   445A      6.774288   446A      6.787010  
     447A      6.815468   448A      6.820745   449A      6.856822  
     450A      6.896861   451A      6.909120   452A      6.919470  
     453A      6.923467   454A      6.923963   455A      6.947341  
     456A      6.980470   457A      6.996764   458A      7.014390  
     459A      7.040554   460A      7.095428   461A      7.107634  
     462A      7.110560   463A      7.138626   464A      7.160153  
     465A      7.180788   466A      7.194521   467A      7.207795  
     468A      7.223744   469A      7.224728   470A      7.254707  
     471A      7.280761   472A      7.312155   473A      7.360246  
     474A      7.369614   475A      7.371702   476A      7.419861  
     477A      7.440506   478A      7.442245   479A      7.478221  
     480A      7.541537   481A      7.546585   482A      7.600815  
     483A      7.605717   484A      7.618209   485A      7.642439  
     486A      7.721696   487A      7.732294   488A      7.751814  
     489A      7.756854   490A      7.784976   491A      7.818473  
     492A      7.840817   493A      7.846962   494A      7.860563  
     495A      7.924887   496A      7.951627   497A      7.954171  
     498A      7.989310   499A      7.998792   500A      8.022664  
     501A      8.026499   502A      8.049705   503A      8.093696  
     504A      8.117481   505A      8.152812   506A      8.157516  
     507A      8.198814   508A      8.207126   509A      8.328592  
     510A      8.336522   511A      8.342409   512A      8.355843  
     513A      8.389525   514A      8.421091   515A      8.426224  
     516A      8.484863   517A      8.508884   518A      8.510921  
     519A      8.530477   520A      8.555425   521A      8.568074  
     522A      8.594858   523A      8.610764   524A      8.616464  
     525A      8.656057   526A      8.697273   527A      8.712240  
     528A      8.721202   529A      8.766004   530A      8.816351  
     531A      8.831903   532A      8.840675   533A      8.843926  
     534A      8.846817   535A      8.891155   536A      8.900648  
     537A      8.929276   538A      8.942726   539A      8.958727  
     540A      9.010258   541A      9.017797   542A      9.029512  
     543A      9.038701   544A      9.048566   545A      9.067229  
     546A      9.085688   547A      9.110551   548A      9.118452  
     549A      9.172696   550A      9.179386   551A      9.190930  
     552A      9.236460   553A      9.252996   554A      9.314191  
     555A      9.345092   556A      9.352141   557A      9.356271  
     558A      9.367931   559A      9.398666   560A      9.453152  
     561A      9.503858   562A      9.515929   563A      9.527919  
     564A      9.556561   565A      9.651357   566A      9.659982  
     567A      9.726705   568A      9.760858   569A      9.774472  
     570A      9.798160   571A      9.834136   572A      9.897006  
     573A      9.924674   574A      9.932784   575A      9.961528  
     576A     10.071633   577A     10.114638   578A     10.232562  
     579A     10.242834   580A     10.256197   581A     10.293070  
     582A     10.418566   583A     10.479604   584A     10.501212  
     585A     10.515764   586A     10.588846   587A     10.625134  
     588A     10.648873   589A     10.782424   590A     10.789684  
     591A     10.819851   592A     10.825154   593A     10.966415  
     594A     11.004195   595A     11.057768   596A     11.083757  
     597A     11.097502   598A     11.107092   599A     11.146725  
     600A     11.150462   601A     11.176997   602A     11.220017  
     603A     11.235245   604A     11.258058   605A     11.351268  
     606A     11.387156   607A     11.457076   608A     11.464141  
     609A     11.512744   610A     11.513634   611A     11.526845  
     612A     11.557585   613A     11.635167   614A     11.657498  
     615A     11.744179   616A     11.829194   617A     11.848376  
     618A     11.884384   619A     11.908561   620A     11.927869  
     621A     12.220182   622A     12.278247   623A     12.317105  
     624A     12.400294   625A     12.664373   626A     12.677260  
     627A     12.821552   628A     12.908934   629A     12.949940  
     630A     13.057897   631A     13.097290   632A     13.114388  
     633A     13.194929   634A     13.233392   635A     13.264973  
     636A     13.357424   637A     13.389993   638A     13.401036  
     639A     13.425135   640A     13.532196   641A     13.535588  
     642A     13.554981   643A     13.741712   644A     13.751096  
     645A     13.819512   646A     13.820726   647A     13.867374  
     648A     13.932442   649A     14.007241   650A     14.018815  
     651A     14.164411   652A     14.172711   653A     14.730357  
     654A     14.927161   655A     27.317829   656A     27.905177  
     657A     28.047840   658A     28.600652   659A     44.849362  
     660A     45.764592  

    Final Occupation by Irrep:
              A 
    DOCC [    23 ]

  @DF-RHF Final Energy:  -304.75534735429767

   => Energetics <=

    Nuclear Repulsion Energy =            258.0590504884092411
    One-Electron Energy =                -927.6968530588867452
    Two-Electron Energy =                 364.8824552161798920
    Total Energy =                       -304.7553473542976690

Computation Completed


Properties will be evaluated at   0.000000,   0.000000,   0.000000 [a0]

Properties computed using the SCF density matrix

  Nuclear Dipole Moment: [e a0]
     X:    -4.4801      Y:     0.0019      Z:    -0.0002

  Electronic Dipole Moment: [e a0]
     X:     3.7445      Y:    -0.0021      Z:     0.0004

  Dipole Moment: [e a0]
     X:    -0.7356      Y:    -0.0002      Z:     0.0002     Total:     0.7356

  Dipole Moment: [D]
     X:    -1.8698      Y:    -0.0005      Z:     0.0006     Total:     1.8698


*** tstop() called on n056 at Fri Jun  5 11:42:36 2020
Module time:
	user time   =     170.20 seconds =       2.84 minutes
	system time =       6.91 seconds =       0.12 minutes
	total time  =         46 seconds =       0.77 minutes
Total time:
	user time   =     170.20 seconds =       2.84 minutes
	system time =       6.91 seconds =       0.12 minutes
	total time  =         46 seconds =       0.77 minutes

*** tstart() called on n056
*** at Fri Jun  5 11:42:36 2020


  //>>>>>>>>>>>>>>>>>>>>>>>>>>>>>>>>>>>//
  //               DFMP2               //
  //<<<<<<<<<<<<<<<<<<<<<<<<<<<<<<<<<<<//

   => Loading Basis Set <=

    Name: (HEAVY-AUG-CC-PV(Q+D)Z AUX)
    Role: RIFIT
    Keyword: DF_BASIS_MP2
    atoms 1, 4, 7, 10     entry C          line   180 file /opt/psi/4/master/share/psi4/basis/heavy-aug-cc-pvqz-ri.gbs 
    atoms 2-3, 5-6, 8, 11 entry H          line    44 file /opt/psi/4/master/share/psi4/basis/heavy-aug-cc-pvqz-ri.gbs 
    atoms 9, 12           entry O          line   328 file /opt/psi/4/master/share/psi4/basis/heavy-aug-cc-pvqz-ri.gbs 

	 --------------------------------------------------------
	                          DF-MP2                         
	      2nd-Order Density-Fitted Moller-Plesset Theory     
	              RMP2 Wavefunction,   4 Threads             
	                                                         
	        Rob Parrish, Justin Turney, Andy Simmonett,      
	           Ed Hohenstein, and C. David Sherrill          
	 --------------------------------------------------------

   => Auxiliary Basis Set <=

  Basis Set: (HEAVY-AUG-CC-PV(Q+D)Z AUX)
    Blend: HEAVY-AUG-CC-PVQZ-RI
    Number of shells: 306
    Number of basis function: 1338
    Number of Cartesian functions: 1842
    Spherical Harmonics?: true
    Max angular momentum: 5

	 --------------------------------------------------------
	                 NBF =   660, NAUX =  1338
	 --------------------------------------------------------
	   CLASS    FOCC     OCC    AOCC    AVIR     VIR    FVIR
	   PAIRS       6      23      17     637     637       0
	 --------------------------------------------------------

	-----------------------------------------------------------
	 ==================> DF-MP2 Energies <==================== 
	-----------------------------------------------------------
	 Reference Energy          =    -304.7553473542976690 [Eh]
	 Singles Energy            =      -0.0000000000000000 [Eh]
	 Same-Spin Energy          =      -0.2937700450953178 [Eh]
	 Opposite-Spin Energy      =      -0.9223860468027298 [Eh]
	 Correlation Energy        =      -1.2161560918980476 [Eh]
	 Total Energy              =    -305.9715034461956975 [Eh]
	-----------------------------------------------------------
	 ================> DF-SCS-MP2 Energies <================== 
	-----------------------------------------------------------
	 SCS Same-Spin Scale       =       0.3333333333333333 [-]
	 SCS Opposite-Spin Scale   =       1.2000000000000000 [-]
	 SCS Same-Spin Energy      =      -0.0979233483651059 [Eh]
	 SCS Opposite-Spin Energy  =      -1.1068632561632759 [Eh]
	 SCS Correlation Energy    =      -1.2047866045283817 [Eh]
	 SCS Total Energy          =    -305.9601339588260771 [Eh]
	-----------------------------------------------------------


*** tstop() called on n056 at Fri Jun  5 11:42:45 2020
Module time:
	user time   =      35.29 seconds =       0.59 minutes
	system time =       0.71 seconds =       0.01 minutes
	total time  =          9 seconds =       0.15 minutes
Total time:
	user time   =     205.49 seconds =       3.42 minutes
	system time =       7.62 seconds =       0.13 minutes
	total time  =         55 seconds =       0.92 minutes

========================OPTAVC-XTPL==========================

MP2/QZ correlation energy -1.2161560918980476
SCF/QZ reference energy -304.75534735429767


=============================================================

Scratch directory: /tmp/

Scratch directory: /tmp/
    SCF Algorithm Type (re)set to DF.

*** tstart() called on n056
*** at Fri Jun  5 11:42:46 2020


  //>>>>>>>>>>>>>>>>>>>>>>>>>>>>>>>>>>>//
  //      Guess SCF, pcseg-0 Basis     //
  //<<<<<<<<<<<<<<<<<<<<<<<<<<<<<<<<<<<//

   => Loading Basis Set <=

    Name: PCSEG-0
    Role: ORBITAL
    Keyword: BASIS
    atoms 1, 4, 7, 10     entry C          line    71 file /opt/psi/4/master/share/psi4/basis/pcseg-0.gbs 
    atoms 2-3, 5-6, 8, 11 entry H          line    13 file /opt/psi/4/master/share/psi4/basis/pcseg-0.gbs 
    atoms 9, 12           entry O          line   103 file /opt/psi/4/master/share/psi4/basis/pcseg-0.gbs 


         ---------------------------------------------------------
                           SCF Castup computation                  
         ---------------------------------------------------------
                                   SCF
               by Justin Turney, Rob Parrish, Andy Simmonett
                          and Daniel G. A. Smith
                              RHF Reference
                        4 Threads,    500 MiB Core
         ---------------------------------------------------------

  ==> Geometry <==

    Molecular point group: c1
    Full point group: C1

    Geometry (in Angstrom), charge = 0, multiplicity = 1:

       Center              X                  Y                   Z               Mass       
    ------------   -----------------  -----------------  -----------------  -----------------
         C           -1.169969463277    -0.774075714550    -0.000125580240    12.000000000000
         H           -1.617202611977    -1.211544387650    -0.890367767540     1.007825032230
         H           -1.617274396477    -1.211731322050     0.889988080060     1.007825032230
         C           -1.170087777377     0.773896028650     0.000044791660    12.000000000000
         H           -1.617450892977     1.211295070450     0.890255761560     1.007825032230
         H           -1.617399631177     1.213892627517    -0.890135955783     1.007825032230
         C            0.356566718293     0.920040664407     0.000069367464    12.000000000000
         H            0.840791589398     1.891615620524     0.000142977859     1.007825032230
         O            0.760951547759     0.000108295876    -1.017879161246    15.994914619570
         C            0.357038554537    -0.920155818913    -0.000042451433    12.000000000000
         H            0.841762209416    -1.891482001144    -0.000084267622     1.007825032230
         O            0.760885522671    -0.000015987144     1.017932254135    15.994914619570

  Running in c1 symmetry.

  Rotational constants: A =      0.20028  B =      0.16407  C =      0.14757 [cm^-1]
  Rotational constants: A =   6004.24708  B =   4918.80154  C =   4424.06236 [MHz]
  Nuclear repulsion =  258.059050488409241

  Charge       = 0
  Multiplicity = 1
  Electrons    = 46
  Nalpha       = 23
  Nbeta        = 23

  ==> Algorithm <==

  SCF Algorithm Type is DF.
  DIIS enabled.
  MOM disabled.
  Fractional occupation disabled.
  Guess Type is SAD.
  Energy threshold   = 1.00e-10
  Density threshold  = 1.00e-10
  Integral threshold = 0.00e+00

  ==> Primary Basis <==

  Basis Set: PCSEG-0
    Blend: PCSEG-0
    Number of shells: 42
    Number of basis function: 66
    Number of Cartesian functions: 66
    Spherical Harmonics?: true
    Max angular momentum: 1

   => Loading Basis Set <=

    Name: (PCSEG-0 AUX)
    Role: JKFIT
    Keyword: DF_BASIS_SCF
    atoms 1, 4, 7, 10     entry C          line   198 file /opt/psi/4/master/share/psi4/basis/def2-universal-jkfit.gbs 
    atoms 2-3, 5-6, 8, 11 entry H          line    18 file /opt/psi/4/master/share/psi4/basis/def2-universal-jkfit.gbs 
    atoms 9, 12           entry O          line   318 file /opt/psi/4/master/share/psi4/basis/def2-universal-jkfit.gbs 

  ==> Integral Setup <==

  ==> DiskDFJK: Density-Fitted J/K Matrices <==

    J tasked:                  Yes
    K tasked:                  Yes
    wK tasked:                  No
    OpenMP threads:              4
    Integrals threads:           4
    Memory [MiB]:              375
    Algorithm:                Core
    Integral Cache:           NONE
    Schwarz Cutoff:          1E-12
    Fitting Condition:       1E-10

   => Auxiliary Basis Set <=

  Basis Set: (PCSEG-0 AUX)
    Blend: DEF2-UNIVERSAL-JKFIT
    Number of shells: 186
    Number of basis function: 562
    Number of Cartesian functions: 662
    Spherical Harmonics?: true
    Max angular momentum: 4

  Minimum eigenvalue in the overlap matrix is 1.2768216796E-03.
  Reciprocal condition number of the overlap matrix is 2.1020923545E-04.
    Using symmetric orthogonalization.

  ==> Pre-Iterations <==

  SCF Guess: Superposition of Atomic Densities via on-the-fly atomic UHF (no occupation information).

   -------------------------
    Irrep   Nso     Nmo    
   -------------------------
     A         66      66 
   -------------------------
    Total      66      66
   -------------------------

  ==> Iterations <==

                           Total Energy        Delta E     RMS |[F,P]|

   @DF-RHF iter SAD:  -303.78279183059448   -3.03783e+02   0.00000e+00 
   @DF-RHF iter   1:  -303.56519952437060    2.17592e-01   7.20869e-03 DIIS
   @DF-RHF iter   2:  -303.66408655663224   -9.88870e-02   3.86664e-03 DIIS
   @DF-RHF iter   3:  -303.68843435403556   -2.43478e-02   6.09704e-04 DIIS
   @DF-RHF iter   4:  -303.68957432188347   -1.13997e-03   1.89590e-04 DIIS
   @DF-RHF iter   5:  -303.68966266495545   -8.83431e-05   4.01187e-05 DIIS
   @DF-RHF iter   6:  -303.68966978220203   -7.11725e-06   8.09202e-06 DIIS
   @DF-RHF iter   7:  -303.68967015378956   -3.71588e-07   1.67444e-06 DIIS
   @DF-RHF iter   8:  -303.68967016691909   -1.31295e-08   5.24008e-07 DIIS
   @DF-RHF iter   9:  -303.68967016825718   -1.33809e-09   1.00053e-07 DIIS
   @DF-RHF iter  10:  -303.68967016832005   -6.28688e-11   1.69327e-08 DIIS
   @DF-RHF iter  11:  -303.68967016832192   -1.87583e-12   2.60406e-09 DIIS
   @DF-RHF iter  12:  -303.68967016832204   -1.13687e-13   8.24736e-10 DIIS
   @DF-RHF iter  13:  -303.68967016832295   -9.09495e-13   2.65640e-10 DIIS
   @DF-RHF iter  14:  -303.68967016832244    5.11591e-13   5.34617e-11 DIIS
  Energy and wave function converged.


  ==> Post-Iterations <==

    Orbital Energies [Eh]
    ---------------------

    Doubly Occupied:                                                      

       1A    -20.583842     2A    -20.583774     3A    -11.368411  
       4A    -11.368373     5A    -11.254808     6A    -11.254400  
       7A     -1.548730     8A     -1.317310     9A     -1.091193  
      10A     -1.011026    11A     -0.822256    12A     -0.787935  
      13A     -0.770584    14A     -0.684657    15A     -0.664435  
      16A     -0.661577    17A     -0.555075    18A     -0.534594  
      19A     -0.528150    20A     -0.525252    21A     -0.518180  
      22A     -0.467587    23A     -0.441359  

    Virtual:                                                              

      24A      0.203654    25A      0.232796    26A      0.236634  
      27A      0.242140    28A      0.254664    29A      0.267639  
      30A      0.315996    31A      0.351966    32A      0.354588  
      33A      0.388136    34A      0.408837    35A      0.474139  
      36A      0.575758    37A      0.796113    38A      0.799740  
      39A      0.820868    40A      0.924809    41A      0.934029  
      42A      0.944497    43A      0.951655    44A      1.004177  
      45A      1.005391    46A      1.033523    47A      1.061421  
      48A      1.071804    49A      1.136513    50A      1.149911  
      51A      1.171635    52A      1.172407    53A      1.210666  
      54A      1.239060    55A      1.422288    56A      1.453987  
      57A      1.484925    58A      1.525925    59A      1.692296  
      60A      1.710130    61A      1.929855    62A      1.952667  
      63A      2.144746    64A      2.303169    65A      2.379029  
      66A      2.449460  

    Final Occupation by Irrep:
              A 
    DOCC [    23 ]

  @DF-RHF Final Energy:  -303.68967016832244

   => Energetics <=

    Nuclear Repulsion Energy =            258.0590504884092411
    One-Electron Energy =                -924.8104252034002002
    Two-Electron Energy =                 363.0617045466685795
    Total Energy =                       -303.6896701683224364

Computation Completed

  //>>>>>>>>>>>>>>>>>>>>>>>>>>>>>>>>>>>//
  //                SCF                //
  //<<<<<<<<<<<<<<<<<<<<<<<<<<<<<<<<<<<//

   => Loading Basis Set <=

    Name: HEAVY-AUG-CC-PV(T+D)Z
    Role: ORBITAL
    Keyword: BASIS
    atoms 1, 4, 7, 10     entry C          line   273 file /opt/psi/4/master/share/psi4/basis/heavy-aug-cc-pv_tpd_z.gbs 
    atoms 2-3, 5-6, 8, 11 entry H          line    86 file /opt/psi/4/master/share/psi4/basis/heavy-aug-cc-pv_tpd_z.gbs 
    atoms 9, 12           entry O          line   365 file /opt/psi/4/master/share/psi4/basis/heavy-aug-cc-pv_tpd_z.gbs 


         ---------------------------------------------------------
                                   SCF
               by Justin Turney, Rob Parrish, Andy Simmonett
                          and Daniel G. A. Smith
                              RHF Reference
                        4 Threads,    500 MiB Core
         ---------------------------------------------------------

  ==> Geometry <==

    Molecular point group: c1
    Full point group: C1

    Geometry (in Angstrom), charge = 0, multiplicity = 1:

       Center              X                  Y                   Z               Mass       
    ------------   -----------------  -----------------  -----------------  -----------------
         C           -1.169969463277    -0.774075714550    -0.000125580240    12.000000000000
         H           -1.617202611977    -1.211544387650    -0.890367767540     1.007825032230
         H           -1.617274396477    -1.211731322050     0.889988080060     1.007825032230
         C           -1.170087777377     0.773896028650     0.000044791660    12.000000000000
         H           -1.617450892977     1.211295070450     0.890255761560     1.007825032230
         H           -1.617399631177     1.213892627517    -0.890135955783     1.007825032230
         C            0.356566718293     0.920040664407     0.000069367464    12.000000000000
         H            0.840791589398     1.891615620524     0.000142977859     1.007825032230
         O            0.760951547759     0.000108295876    -1.017879161246    15.994914619570
         C            0.357038554537    -0.920155818913    -0.000042451433    12.000000000000
         H            0.841762209416    -1.891482001144    -0.000084267622     1.007825032230
         O            0.760885522671    -0.000015987144     1.017932254135    15.994914619570

  Running in c1 symmetry.

  Rotational constants: A =      0.20028  B =      0.16407  C =      0.14757 [cm^-1]
  Rotational constants: A =   6004.24708  B =   4918.80154  C =   4424.06236 [MHz]
  Nuclear repulsion =  258.059050488409241

  Charge       = 0
  Multiplicity = 1
  Electrons    = 46
  Nalpha       = 23
  Nbeta        = 23

  ==> Algorithm <==

  SCF Algorithm Type is DF.
  DIIS enabled.
  MOM disabled.
  Fractional occupation disabled.
  Guess Type is SAD.
  Energy threshold   = 1.00e-10
  Density threshold  = 1.00e-10
  Integral threshold = 0.00e+00

  ==> Primary Basis <==

  Basis Set: HEAVY-AUG-CC-PV(T+D)Z
    Blend: HEAVY-AUG-CC-PV(T+D)Z
    Number of shells: 120
    Number of basis function: 360
    Number of Cartesian functions: 420
    Spherical Harmonics?: true
    Max angular momentum: 3

   => Loading Basis Set <=

    Name: (HEAVY-AUG-CC-PV(T+D)Z AUX)
    Role: JKFIT
    Keyword: DF_BASIS_SCF
    atoms 1, 4, 7, 10     entry C          line   200 file /opt/psi/4/master/share/psi4/basis/heavy-aug-cc-pvtz-jkfit.gbs 
    atoms 2-3, 5-6, 8, 11 entry H          line   116 file /opt/psi/4/master/share/psi4/basis/heavy-aug-cc-pvtz-jkfit.gbs 
    atoms 9, 12           entry O          line   324 file /opt/psi/4/master/share/psi4/basis/heavy-aug-cc-pvtz-jkfit.gbs 


  Computing basis projection from PCSEG-0 to HEAVY-AUG-CC-PV(T+D)Z

  ==> Integral Setup <==

  ==> DiskDFJK: Density-Fitted J/K Matrices <==

    J tasked:                  Yes
    K tasked:                  Yes
    wK tasked:                  No
    OpenMP threads:              4
    Integrals threads:           4
    Memory [MiB]:              375
    Algorithm:                Disk
    Integral Cache:           NONE
    Schwarz Cutoff:          1E-12
    Fitting Condition:       1E-10

   => Auxiliary Basis Set <=

  Basis Set: (HEAVY-AUG-CC-PV(T+D)Z AUX)
    Blend: HEAVY-AUG-CC-PVTZ-JKFIT
    Number of shells: 240
    Number of basis function: 804
    Number of Cartesian functions: 996
    Spherical Harmonics?: true
    Max angular momentum: 4

  Minimum eigenvalue in the overlap matrix is 5.4737155451E-06.
  Reciprocal condition number of the overlap matrix is 3.9946961124E-07.
    Using symmetric orthogonalization.

  ==> Pre-Iterations <==

  SCF Guess: Orbitals guess was supplied from a previous computation.

   -------------------------
    Irrep   Nso     Nmo    
   -------------------------
     A        360     360 
   -------------------------
    Total     360     360
   -------------------------

  ==> Iterations <==

                           Total Energy        Delta E     RMS |[F,P]|

   @DF-RHF iter   0:  -304.36013476294340   -3.04360e+02   4.19483e-03 
   @DF-RHF iter   1:  -304.71755758217546   -3.57423e-01   5.78102e-04 DIIS
   @DF-RHF iter   2:  -304.73284674141479   -1.52892e-02   2.73889e-04 DIIS
   @DF-RHF iter   3:  -304.73657835178182   -3.73161e-03   4.82307e-05 DIIS
   @DF-RHF iter   4:  -304.73683857828615   -2.60227e-04   1.47422e-05 DIIS
   @DF-RHF iter   5:  -304.73685829257647   -1.97143e-05   6.03140e-06 DIIS
   @DF-RHF iter   6:  -304.73686172916814   -3.43659e-06   1.40549e-06 DIIS
   @DF-RHF iter   7:  -304.73686197439224   -2.45224e-07   3.05451e-07 DIIS
   @DF-RHF iter   8:  -304.73686198744963   -1.30574e-08   8.06938e-08 DIIS
   @DF-RHF iter   9:  -304.73686198835554   -9.05914e-10   2.57010e-08 DIIS
   @DF-RHF iter  10:  -304.73686198844172   -8.61746e-11   6.20059e-09 DIIS
   @DF-RHF iter  11:  -304.73686198844791   -6.19593e-12   1.58611e-09 DIIS
   @DF-RHF iter  12:  -304.73686198844803   -1.13687e-13   4.56208e-10 DIIS
   @DF-RHF iter  13:  -304.73686198844825   -2.27374e-13   9.54190e-11 DIIS
  Energy and wave function converged.


  ==> Post-Iterations <==

    Orbital Energies [Eh]
    ---------------------

    Doubly Occupied:                                                      

       1A    -20.567252     2A    -20.567214     3A    -11.348013  
       4A    -11.347964     5A    -11.236304     6A    -11.235731  
       7A     -1.501520     8A     -1.296810     9A     -1.066866  
      10A     -0.990120    11A     -0.810546    12A     -0.787628  
      13A     -0.749016    14A     -0.676379    15A     -0.657284  
      16A     -0.645147    17A     -0.537587    18A     -0.525179  
      19A     -0.519402    20A     -0.511581    21A     -0.508418  
      22A     -0.459971    23A     -0.431363  

    Virtual:                                                              

      24A      0.050443    25A      0.051304    26A      0.059466  
      27A      0.072111    28A      0.073473    29A      0.092419  
      30A      0.093430    31A      0.096777    32A      0.116641  
      33A      0.126407    34A      0.127462    35A      0.130107  
      36A      0.162129    37A      0.176390    38A      0.195526  
      39A      0.204219    40A      0.206623    41A      0.214134  
      42A      0.220956    43A      0.228191    44A      0.233687  
      45A      0.249504    46A      0.268187    47A      0.268873  
      48A      0.276979    49A      0.295918    50A      0.302214  
      51A      0.315537    52A      0.332136    53A      0.336061  
      54A      0.342720    55A      0.348404    56A      0.356963  
      57A      0.357144    58A      0.362752    59A      0.376037  
      60A      0.398605    61A      0.404050    62A      0.412795  
      63A      0.421474    64A      0.433729    65A      0.447054  
      66A      0.459403    67A      0.469163    68A      0.486627  
      69A      0.493114    70A      0.508562    71A      0.512650  
      72A      0.516751    73A      0.520741    74A      0.527729  
      75A      0.529239    76A      0.543544    77A      0.546062  
      78A      0.580521    79A      0.595826    80A      0.608041  
      81A      0.612113    82A      0.624844    83A      0.654829  
      84A      0.657263    85A      0.672095    86A      0.722524  
      87A      0.737348    88A      0.748581    89A      0.754177  
      90A      0.771703    91A      0.781517    92A      0.793678  
      93A      0.798296    94A      0.817449    95A      0.820062  
      96A      0.830086    97A      0.843493    98A      0.878366  
      99A      0.892148   100A      0.930749   101A      0.930861  
     102A      0.940221   103A      0.946358   104A      0.969970  
     105A      0.988472   106A      1.000150   107A      1.031657  
     108A      1.037475   109A      1.039075   110A      1.061856  
     111A      1.080474   112A      1.096272   113A      1.115853  
     114A      1.123288   115A      1.139023   116A      1.161579  
     117A      1.189182   118A      1.225289   119A      1.249076  
     120A      1.252412   121A      1.262778   122A      1.283034  
     123A      1.323017   124A      1.330787   125A      1.339044  
     126A      1.353480   127A      1.375133   128A      1.382762  
     129A      1.398392   130A      1.404042   131A      1.412762  
     132A      1.448276   133A      1.448492   134A      1.460259  
     135A      1.482084   136A      1.497727   137A      1.506622  
     138A      1.527397   139A      1.547166   140A      1.559861  
     141A      1.583200   142A      1.585911   143A      1.588636  
     144A      1.589821   145A      1.601660   146A      1.656251  
     147A      1.660640   148A      1.670540   149A      1.676518  
     150A      1.684942   151A      1.700097   152A      1.707910  
     153A      1.715662   154A      1.732144   155A      1.736640  
     156A      1.749962   157A      1.752826   158A      1.791606  
     159A      1.802625   160A      1.808778   161A      1.823970  
     162A      1.903463   163A      1.905488   164A      1.931398  
     165A      1.945494   166A      1.948849   167A      1.985198  
     168A      1.993465   169A      2.003704   170A      2.007594  
     171A      2.028109   172A      2.051180   173A      2.054989  
     174A      2.060713   175A      2.150774   176A      2.153681  
     177A      2.214079   178A      2.251744   179A      2.301692  
     180A      2.335153   181A      2.393112   182A      2.403112  
     183A      2.424077   184A      2.441731   185A      2.452366  
     186A      2.480789   187A      2.507683   188A      2.511638  
     189A      2.545274   190A      2.582091   191A      2.632031  
     192A      2.646167   193A      2.682458   194A      2.693305  
     195A      2.725284   196A      2.771158   197A      2.799505  
     198A      2.882198   199A      2.882970   200A      2.895308  
     201A      2.914495   202A      2.921002   203A      2.958398  
     204A      2.966148   205A      2.969315   206A      3.081314  
     207A      3.099739   208A      3.119323   209A      3.132115  
     210A      3.185733   211A      3.188880   212A      3.213193  
     213A      3.227403   214A      3.243474   215A      3.267050  
     216A      3.312107   217A      3.339260   218A      3.412512  
     219A      3.416205   220A      3.418007   221A      3.440142  
     222A      3.442787   223A      3.480703   224A      3.486572  
     225A      3.503967   226A      3.524452   227A      3.539246  
     228A      3.606964   229A      3.629231   230A      3.639779  
     231A      3.671530   232A      3.685994   233A      3.700538  
     234A      3.710906   235A      3.729829   236A      3.735912  
     237A      3.751288   238A      3.821027   239A      3.837309  
     240A      3.844426   241A      3.867640   242A      3.885443  
     243A      3.933554   244A      3.949541   245A      3.966118  
     246A      3.966504   247A      3.969751   248A      4.005136  
     249A      4.025780   250A      4.049933   251A      4.056412  
     252A      4.080178   253A      4.106947   254A      4.114253  
     255A      4.148246   256A      4.167635   257A      4.176370  
     258A      4.185411   259A      4.191668   260A      4.214349  
     261A      4.244632   262A      4.252851   263A      4.259598  
     264A      4.268148   265A      4.273773   266A      4.318092  
     267A      4.345835   268A      4.366643   269A      4.430048  
     270A      4.466862   271A      4.484271   272A      4.486334  
     273A      4.499690   274A      4.516357   275A      4.532105  
     276A      4.554829   277A      4.584099   278A      4.638874  
     279A      4.691032   280A      4.693298   281A      4.703534  
     282A      4.708459   283A      4.734667   284A      4.744602  
     285A      4.758248   286A      4.808564   287A      4.820507  
     288A      4.821245   289A      4.840759   290A      4.888599  
     291A      4.906663   292A      4.959053   293A      4.966543  
     294A      4.968094   295A      5.096977   296A      5.119913  
     297A      5.125070   298A      5.193383   299A      5.199710  
     300A      5.240826   301A      5.272125   302A      5.289893  
     303A      5.398048   304A      5.424570   305A      5.436839  
     306A      5.466695   307A      5.476222   308A      5.583837  
     309A      5.584378   310A      5.606042   311A      5.654485  
     312A      5.703800   313A      5.710315   314A      5.730331  
     315A      5.860328   316A      5.866536   317A      5.900333  
     318A      5.937771   319A      6.061054   320A      6.129607  
     321A      6.153169   322A      6.206867   323A      6.261785  
     324A      6.288562   325A      6.301583   326A      6.361135  
     327A      6.384973   328A      6.498458   329A      6.563344  
     330A      6.901422   331A      6.905779   332A      6.955104  
     333A      6.970961   334A      6.997706   335A      7.032902  
     336A      7.111217   337A      7.141216   338A      7.179620  
     339A      7.206878   340A      7.245569   341A      7.254601  
     342A      7.404385   343A      7.507540   344A      7.599719  
     345A      7.615131   346A      7.659966   347A      7.755688  
     348A      7.811127   349A      7.825141   350A      7.924509  
     351A      8.059671   352A      8.210629   353A      8.213585  
     354A      8.233682   355A     14.278967   356A     15.461964  
     357A     15.712290   358A     15.954754   359A     17.525968  
     360A     18.817889  

    Final Occupation by Irrep:
              A 
    DOCC [    23 ]

  @DF-RHF Final Energy:  -304.73686198844825

   => Energetics <=

    Nuclear Repulsion Energy =            258.0590504884092411
    One-Electron Energy =                -927.6372319778713518
    Two-Electron Energy =                 364.8413195010139134
    Total Energy =                       -304.7368619884482541

Computation Completed


Properties will be evaluated at   0.000000,   0.000000,   0.000000 [a0]

Properties computed using the SCF density matrix

  Nuclear Dipole Moment: [e a0]
     X:    -4.4801      Y:     0.0019      Z:    -0.0002

  Electronic Dipole Moment: [e a0]
     X:     3.7441      Y:    -0.0021      Z:     0.0004

  Dipole Moment: [e a0]
     X:    -0.7360      Y:    -0.0002      Z:     0.0002     Total:     0.7360

  Dipole Moment: [D]
     X:    -1.8708      Y:    -0.0005      Z:     0.0006     Total:     1.8708


*** tstop() called on n056 at Fri Jun  5 11:42:58 2020
Module time:
	user time   =      43.52 seconds =       0.73 minutes
	system time =       2.47 seconds =       0.04 minutes
	total time  =         12 seconds =       0.20 minutes
Total time:
	user time   =     249.45 seconds =       4.16 minutes
	system time =      10.27 seconds =       0.17 minutes
	total time  =         68 seconds =       1.13 minutes

*** tstart() called on n056
*** at Fri Jun  5 11:42:58 2020


  //>>>>>>>>>>>>>>>>>>>>>>>>>>>>>>>>>>>//
  //               DFMP2               //
  //<<<<<<<<<<<<<<<<<<<<<<<<<<<<<<<<<<<//

   => Loading Basis Set <=

    Name: (HEAVY-AUG-CC-PV(T+D)Z AUX)
    Role: RIFIT
    Keyword: DF_BASIS_MP2
    atoms 1, 4, 7, 10     entry C          line   148 file /opt/psi/4/master/share/psi4/basis/heavy-aug-cc-pvtz-ri.gbs 
    atoms 2-3, 5-6, 8, 11 entry H          line    44 file /opt/psi/4/master/share/psi4/basis/heavy-aug-cc-pvtz-ri.gbs 
    atoms 9, 12           entry O          line   264 file /opt/psi/4/master/share/psi4/basis/heavy-aug-cc-pvtz-ri.gbs 

	 --------------------------------------------------------
	                          DF-MP2                         
	      2nd-Order Density-Fitted Moller-Plesset Theory     
	              RMP2 Wavefunction,   4 Threads             
	                                                         
	        Rob Parrish, Justin Turney, Andy Simmonett,      
	           Ed Hohenstein, and C. David Sherrill          
	 --------------------------------------------------------

   => Auxiliary Basis Set <=

  Basis Set: (HEAVY-AUG-CC-PV(T+D)Z AUX)
    Blend: HEAVY-AUG-CC-PVTZ-RI
    Number of shells: 228
    Number of basis function: 816
    Number of Cartesian functions: 1026
    Spherical Harmonics?: true
    Max angular momentum: 4

	 --------------------------------------------------------
	                 NBF =   360, NAUX =   816
	 --------------------------------------------------------
	   CLASS    FOCC     OCC    AOCC    AVIR     VIR    FVIR
	   PAIRS       6      23      17     337     337       0
	 --------------------------------------------------------

	-----------------------------------------------------------
	 ==================> DF-MP2 Energies <==================== 
	-----------------------------------------------------------
	 Reference Energy          =    -304.7368619884482541 [Eh]
	 Singles Energy            =      -0.0000000000000000 [Eh]
	 Same-Spin Energy          =      -0.2850944099577073 [Eh]
	 Opposite-Spin Energy      =      -0.8617738352637347 [Eh]
	 Correlation Energy        =      -1.1468682452214420 [Eh]
	 Total Energy              =    -305.8837302336697235 [Eh]
	-----------------------------------------------------------
	 ================> DF-SCS-MP2 Energies <================== 
	-----------------------------------------------------------
	 SCS Same-Spin Scale       =       0.3333333333333333 [-]
	 SCS Opposite-Spin Scale   =       1.2000000000000000 [-]
	 SCS Same-Spin Energy      =      -0.0950314699859024 [Eh]
	 SCS Opposite-Spin Energy  =      -1.0341286023164817 [Eh]
	 SCS Correlation Energy    =      -1.1291600723023842 [Eh]
	 SCS Total Energy          =    -305.8660220607506517 [Eh]
	-----------------------------------------------------------


*** tstop() called on n056 at Fri Jun  5 11:43:00 2020
Module time:
	user time   =       8.70 seconds =       0.15 minutes
	system time =       0.15 seconds =       0.00 minutes
	total time  =          2 seconds =       0.03 minutes
Total time:
	user time   =     258.15 seconds =       4.30 minutes
	system time =      10.42 seconds =       0.17 minutes
	total time  =         70 seconds =       1.17 minutes

========================OPTAVC-XTPL==========================

MP2/TZ correlation energy -1.146868245221442

=============================================================

    Psi4 stopped on: Friday, 05 June 2020 11:43AM
    Psi4 wall time for execution: 0:01:10.21

*** Psi4 exiting successfully. Buy a developer a beer!
