
Host: n087

Timers On : Fri Jun  5 00:39:20 2020
Timers Off: Fri Jun  5 01:13:24 2020

Wall Time:     2044.20 seconds

                                                       Time (seconds)
Module                                       User      System        Wall        Calls
JK: (A|mn)                          :     21.983u      0.000s      3.301w      7 calls
JK: (A|Q)^-1/2                      :      0.483u      0.033s      0.078w      1 calls
JK: (Q|mn)                          :     40.783u      0.100s      6.133w      7 calls
HF: Form core H                     :      1.150u      0.000s      0.172w      2 calls
HF: Form S/X                        :      0.583u      0.017s      0.091w      2 calls
HF: Guess                           :      1.650u      0.017s      0.248w      2 calls
SAD Guess                           :      1.567u      0.017s      0.238w      1 calls
HF: Form G                          :   3019.633u    140.267s    474.211w    338 calls
JK: D                               :      1.467u      0.017s      0.220w   1027 calls
JK: USO2AO                          :      1.383u      0.033s      0.202w   1027 calls
JK: JK                              :  12972.117u    424.600s   2010.259w   1027 calls
JK: J                               :   1000.467u      0.967s    150.293w   6493 calls
JK: J1                              :    473.300u      0.117s     71.068w   6493 calls
JK: J2                              :    471.217u      0.117s     70.688w   6493 calls
JK: K                               :  10690.967u      0.850s   1603.947w   6493 calls
JK: K1                              :   9909.733u      0.400s   1486.674w  10842 calls
JK: K2                              :    772.300u      0.117s    115.871w   6493 calls
JK: (Q|mn) Read                     :   1125.133u    388.617s    227.031w   6377 calls
JK: AO2USO                          :      0.000u      0.000s      0.001w   1027 calls
HF: Form F                          :      1.383u      0.017s      0.225w    338 calls
HF: Form D                          :      0.483u      0.000s      0.081w    338 calls
HF: DIIS                            :      0.600u      0.000s      0.091w      5 calls
DIISManager::add_entry              :      0.067u      0.000s      0.010w      4 calls
DIISManager::extrapolate            :      0.050u      0.000s      0.004w      4 calls
bMatrix setup                       :      0.000u      0.000s      0.001w      4 calls
bMatrix pseudoinverse               :      0.000u      0.000s      0.000w      4 calls
New vector                          :      0.033u      0.000s      0.003w      4 calls
HF: Form C                          :      1.683u      0.017s      0.255w      6 calls
DFH: sparsity prep                  :      1.483u      0.000s      0.384w      1 calls
JK: (A|Q)^-1                        :      2.750u      1.100s      0.651w      1 calls
JK: (Q|mn) Write                    :      2.433u      0.850s      0.487w      6 calls

--------------------------------------------------------------------------------------
JK: (A|mn)                          :     21.983u      0.000s      3.301w      7 calls
JK: (A|Q)^-1/2                      :      0.483u      0.033s      0.078w      1 calls
JK: (Q|mn)                          :     40.783u      0.100s      6.133w      7 calls
HF: Form core H                     :      1.150u      0.000s      0.172w      2 calls
HF: Form S/X                        :      0.583u      0.017s      0.091w      2 calls
HF: Guess                           :      1.650u      0.017s      0.248w      2 calls
| SAD Guess                         :      1.567u      0.017s      0.238w      1 calls
HF: Form G                          :   3019.633u    140.267s    474.211w    338 calls
| JK: D                             :      0.533u      0.000s      0.075w    338 calls
| JK: USO2AO                        :      0.417u      0.000s      0.066w    338 calls
| JK: JK                            :   3016.733u    140.233s    473.774w    338 calls
| | JK: J                           :    330.300u      0.317s     49.597w   2144 calls
| | | JK: J1                        :    155.850u      0.067s     23.457w   2144 calls
| | | JK: J2                        :    155.367u      0.050s     23.327w   2144 calls
| | JK: K                           :   2263.400u      0.117s    339.605w   2144 calls
| | | JK: K1                        :   2011.450u      0.083s    301.789w   2144 calls
| | | JK: K2                        :    249.467u      0.000s     37.410w   2144 calls
| | JK: (Q|mn) Read                 :    372.500u    128.867s     75.178w   2107 calls
| JK: AO2USO                        :      0.000u      0.000s      0.000w    338 calls
HF: Form F                          :      1.383u      0.017s      0.225w    338 calls
HF: Form D                          :      0.483u      0.000s      0.081w    338 calls
HF: DIIS                            :      0.600u      0.000s      0.091w      5 calls
| DIISManager::add_entry            :      0.067u      0.000s      0.010w      4 calls
| DIISManager::extrapolate          :      0.050u      0.000s      0.004w      4 calls
| | bMatrix setup                   :      0.000u      0.000s      0.001w      4 calls
| | bMatrix pseudoinverse           :      0.000u      0.000s      0.000w      4 calls
| | New vector                      :      0.033u      0.000s      0.003w      4 calls
HF: Form C                          :      1.683u      0.017s      0.255w      6 calls
JK: D                               :      0.933u      0.017s      0.145w    689 calls
JK: USO2AO                          :      0.967u      0.033s      0.136w    689 calls
JK: JK                              :   9955.383u    284.367s   1536.485w    689 calls
| JK: J                             :    670.167u      0.650s    100.696w   4349 calls
| | JK: J1                          :    317.450u      0.050s     47.611w   4349 calls
| | JK: J2                          :    315.850u      0.067s     47.361w   4349 calls
| JK: K                             :   8427.567u      0.733s   1264.342w   4349 calls
| | JK: K1                          :   7898.283u      0.317s   1184.885w   8698 calls
| | JK: K2                          :    522.833u      0.117s     78.461w   4349 calls
| JK: (Q|mn) Read                   :    752.633u    259.750s    151.853w   4270 calls
JK: AO2USO                          :      0.000u      0.000s      0.001w    689 calls
DFH: sparsity prep                  :      1.483u      0.000s      0.384w      1 calls
JK: (A|Q)^-1                        :      2.750u      1.100s      0.651w      1 calls
JK: (Q|mn) Write                    :      2.433u      0.850s      0.487w      6 calls

**************************************************************************************

Host: n056

Timers On : Fri Jun  5 11:41:50 2020
Timers Off: Fri Jun  5 11:43:00 2020

Wall Time:       70.50 seconds

                                                       Time (seconds)
Module                                       User      System        Wall        Calls
JK: (A|mn)                          :     31.517u      0.017s      4.738w     10 calls
JK: (A|Q)^-1/2                      :      1.517u      0.067s      0.236w      2 calls
JK: (Q|mn)                          :     51.933u      0.500s      7.862w     10 calls
HF: Form core H                     :      1.767u      0.000s      0.269w      4 calls
HF: Form S/X                        :      0.817u      0.017s      0.125w      4 calls
HF: Guess                           :      4.600u      0.133s      0.708w      4 calls
SAD Guess                           :      4.433u      0.117s      0.687w      2 calls
HF: Form G                          :    227.600u     11.433s     35.871w     58 calls
JK: D                               :      0.067u      0.000s      0.009w     58 calls
JK: USO2AO                          :      0.017u      0.000s      0.006w     58 calls
JK: JK                              :    227.217u     11.433s     35.828w     58 calls
JK: J                               :     24.533u      0.333s      3.717w    156 calls
JK: J1                              :     11.317u      0.100s      1.723w    156 calls
JK: J2                              :     11.750u      0.117s      1.780w    156 calls
JK: K                               :    175.683u      1.600s     26.588w    156 calls
JK: K1                              :    148.033u      0.217s     22.236w    156 calls
JK: K2                              :     27.450u      1.367s      4.326w    156 calls
JK: (Q|mn) Read                     :     22.150u      8.483s      4.612w    126 calls
JK: AO2USO                          :      0.000u      0.000s      0.000w     58 calls
HF: Form F                          :      0.117u      0.000s      0.017w     58 calls
HF: Form D                          :      0.033u      0.000s      0.008w     58 calls
HF: DIIS                            :      4.583u      0.433s      0.743w     56 calls
DIISManager::add_entry              :      0.417u      0.083s      0.067w     54 calls
DIISManager::extrapolate            :      1.100u      0.283s      0.199w     54 calls
bMatrix setup                       :      0.500u      0.167s      0.099w     54 calls
bMatrix pseudoinverse               :      0.033u      0.000s      0.003w     54 calls
New vector                          :      0.567u      0.117s      0.096w     54 calls
HF: Form C                          :     10.917u      0.150s      1.674w     56 calls
DFH: sparsity prep                  :      2.400u      0.083s      0.598w      2 calls
JK: (A|Q)^-1                        :      4.100u      1.367s      0.844w      2 calls
JK: (Q|mn) Write                    :      2.983u      1.150s      0.616w      8 calls
DFMP2 Singles                       :      0.117u      0.000s      0.020w      2 calls
DFMP2 Aia                           :     51.617u      0.400s      8.203w      2 calls
DFMP2 (A|mn)                        :     40.517u      0.000s      6.084w     13 calls
DFMP2 (A|mn)C_mi                    :      4.033u      0.067s      0.610w     13 calls
DFMP2 (A|mi)C_na                    :      2.100u      0.017s      0.323w     13 calls
DFMP2 Aia Write                     :      0.350u      0.100s      0.065w     13 calls
DFMP2 Qia                           :      8.067u      0.850s      1.337w      2 calls
DFMP2 Metric                        :      4.900u      0.067s      0.743w      2 calls
DFMP2 Aia Read                      :      0.133u      0.050s      0.025w      2 calls
DFMP2 (Q|A)(A|ia)                   :      2.617u      0.583s      0.482w      2 calls
DFMP2 Qia Write                     :      0.283u      0.117s      0.061w      2 calls
DFMP2 Energy                        :     11.167u      0.133s      1.698w      2 calls
DFMP2 Qia Read                      :      0.217u      0.017s      0.039w      4 calls

--------------------------------------------------------------------------------------
JK: (A|mn)                          :     31.517u      0.017s      4.738w     10 calls
JK: (A|Q)^-1/2                      :      1.517u      0.067s      0.236w      2 calls
JK: (Q|mn)                          :     51.933u      0.500s      7.862w     10 calls
HF: Form core H                     :      1.767u      0.000s      0.269w      4 calls
HF: Form S/X                        :      0.817u      0.017s      0.125w      4 calls
HF: Guess                           :      4.600u      0.133s      0.708w      4 calls
| SAD Guess                         :      4.433u      0.117s      0.687w      2 calls
HF: Form G                          :    227.600u     11.433s     35.871w     58 calls
| JK: D                             :      0.067u      0.000s      0.009w     58 calls
| JK: USO2AO                        :      0.017u      0.000s      0.006w     58 calls
| JK: JK                            :    227.217u     11.433s     35.828w     58 calls
| | JK: J                           :     24.533u      0.333s      3.717w    156 calls
| | | JK: J1                        :     11.317u      0.100s      1.723w    156 calls
| | | JK: J2                        :     11.750u      0.117s      1.780w    156 calls
| | JK: K                           :    175.683u      1.600s     26.588w    156 calls
| | | JK: K1                        :    148.033u      0.217s     22.236w    156 calls
| | | JK: K2                        :     27.450u      1.367s      4.326w    156 calls
| | JK: (Q|mn) Read                 :     22.150u      8.483s      4.612w    126 calls
| JK: AO2USO                        :      0.000u      0.000s      0.000w     58 calls
HF: Form F                          :      0.117u      0.000s      0.017w     58 calls
HF: Form D                          :      0.033u      0.000s      0.008w     58 calls
HF: DIIS                            :      4.583u      0.433s      0.743w     56 calls
| DIISManager::add_entry            :      0.417u      0.083s      0.067w     54 calls
| DIISManager::extrapolate          :      1.100u      0.283s      0.199w     54 calls
| | bMatrix setup                   :      0.500u      0.167s      0.099w     54 calls
| | bMatrix pseudoinverse           :      0.033u      0.000s      0.003w     54 calls
| | New vector                      :      0.567u      0.117s      0.096w     54 calls
HF: Form C                          :     10.917u      0.150s      1.674w     56 calls
DFH: sparsity prep                  :      2.400u      0.083s      0.598w      2 calls
JK: (A|Q)^-1                        :      4.100u      1.367s      0.844w      2 calls
JK: (Q|mn) Write                    :      2.983u      1.150s      0.616w      8 calls
DFMP2 Singles                       :      0.117u      0.000s      0.020w      2 calls
DFMP2 Aia                           :     51.617u      0.400s      8.203w      2 calls
| DFMP2 (A|mn)                      :     40.517u      0.000s      6.084w     13 calls
| DFMP2 (A|mn)C_mi                  :      4.033u      0.067s      0.610w     13 calls
| DFMP2 (A|mi)C_na                  :      2.100u      0.017s      0.323w     13 calls
| DFMP2 Aia Write                   :      0.350u      0.100s      0.065w     13 calls
DFMP2 Qia                           :      8.067u      0.850s      1.337w      2 calls
| DFMP2 Metric                      :      4.900u      0.067s      0.743w      2 calls
| DFMP2 Aia Read                    :      0.133u      0.050s      0.025w      2 calls
| DFMP2 (Q|A)(A|ia)                 :      2.617u      0.583s      0.482w      2 calls
| DFMP2 Qia Write                   :      0.283u      0.117s      0.061w      2 calls
DFMP2 Energy                        :     11.167u      0.133s      1.698w      2 calls
| DFMP2 Qia Read                    :      0.217u      0.017s      0.039w      4 calls

**************************************************************************************
