
Host: Mjolnir

Timers On : Mon Dec 21 15:49:58 2020
Timers Off: Mon Dec 21 15:49:59 2020

Wall Time:        0.64 seconds

                                                       Time (seconds)
Module                                       User      System        Wall        Calls

--------------------------------------------------------------------------------------

**************************************************************************************

Host: Mjolnir

Timers On : Mon Dec 21 15:51:24 2020
Timers Off: Mon Dec 21 15:51:25 2020

Wall Time:        0.64 seconds

                                                       Time (seconds)
Module                                       User      System        Wall        Calls

--------------------------------------------------------------------------------------

**************************************************************************************

Host: Mjolnir

Timers On : Mon Dec 21 15:57:50 2020
Timers Off: Mon Dec 21 15:57:50 2020

Wall Time:        0.65 seconds

                                                       Time (seconds)
Module                                       User      System        Wall        Calls

--------------------------------------------------------------------------------------

**************************************************************************************

Host: Mjolnir

Timers On : Mon Dec 21 16:07:10 2020
Timers Off: Mon Dec 21 16:07:11 2020

Wall Time:        0.64 seconds

                                                       Time (seconds)
Module                                       User      System        Wall        Calls

--------------------------------------------------------------------------------------

**************************************************************************************

Host: Mjolnir

Timers On : Mon Dec 21 16:10:33 2020
Timers Off: Mon Dec 21 16:10:33 2020

Wall Time:        0.65 seconds

                                                       Time (seconds)
Module                                       User      System        Wall        Calls

--------------------------------------------------------------------------------------

**************************************************************************************

Host: Mjolnir

Timers On : Mon Dec 21 16:14:05 2020
Timers Off: Mon Dec 21 16:14:05 2020

Wall Time:        0.64 seconds

                                                       Time (seconds)
Module                                       User      System        Wall        Calls

--------------------------------------------------------------------------------------

**************************************************************************************

Host: Mjolnir

Timers On : Mon Dec 21 16:21:44 2020
Timers Off: Mon Dec 21 16:21:45 2020

Wall Time:        0.65 seconds

                                                       Time (seconds)
Module                                       User      System        Wall        Calls

--------------------------------------------------------------------------------------

**************************************************************************************

Host: Mjolnir

Timers On : Mon Dec 21 16:23:30 2020
Timers Off: Mon Dec 21 16:23:31 2020

Wall Time:        0.65 seconds

                                                       Time (seconds)
Module                                       User      System        Wall        Calls

--------------------------------------------------------------------------------------

**************************************************************************************

Host: Mjolnir

Timers On : Mon Dec 21 16:24:59 2020
Timers Off: Mon Dec 21 16:25:00 2020

Wall Time:        0.65 seconds

                                                       Time (seconds)
Module                                       User      System        Wall        Calls

--------------------------------------------------------------------------------------

**************************************************************************************

Host: Mjolnir

Timers On : Mon Dec 21 16:27:11 2020
Timers Off: Mon Dec 21 16:27:11 2020

Wall Time:        0.65 seconds

                                                       Time (seconds)
Module                                       User      System        Wall        Calls

--------------------------------------------------------------------------------------

**************************************************************************************

Host: Mjolnir

Timers On : Mon Dec 21 16:27:34 2020
Timers Off: Mon Dec 21 16:27:35 2020

Wall Time:        0.65 seconds

                                                       Time (seconds)
Module                                       User      System        Wall        Calls

--------------------------------------------------------------------------------------

**************************************************************************************

Host: Mjolnir

Timers On : Mon Dec 21 16:43:45 2020
Timers Off: Mon Dec 21 16:43:46 2020

Wall Time:        0.66 seconds

                                                       Time (seconds)
Module                                       User      System        Wall        Calls

--------------------------------------------------------------------------------------

**************************************************************************************

Host: Mjolnir

Timers On : Mon Dec 21 16:45:05 2020
Timers Off: Mon Dec 21 16:45:06 2020

Wall Time:        0.65 seconds

                                                       Time (seconds)
Module                                       User      System        Wall        Calls

--------------------------------------------------------------------------------------

**************************************************************************************

Host: Mjolnir

Timers On : Mon Dec 21 16:46:36 2020
Timers Off: Mon Dec 21 16:46:37 2020

Wall Time:        0.64 seconds

                                                       Time (seconds)
Module                                       User      System        Wall        Calls

--------------------------------------------------------------------------------------

**************************************************************************************

Host: Mjolnir

Timers On : Mon Dec 21 16:53:09 2020
Timers Off: Mon Dec 21 16:53:10 2020

Wall Time:        0.64 seconds

                                                       Time (seconds)
Module                                       User      System        Wall        Calls

--------------------------------------------------------------------------------------

**************************************************************************************

Host: Mjolnir

Timers On : Mon Dec 21 16:53:35 2020
Timers Off: Mon Dec 21 16:53:36 2020

Wall Time:        0.65 seconds

                                                       Time (seconds)
Module                                       User      System        Wall        Calls

--------------------------------------------------------------------------------------

**************************************************************************************

Host: Mjolnir

Timers On : Mon Dec 21 16:55:19 2020
Timers Off: Mon Dec 21 16:55:20 2020

Wall Time:        0.64 seconds

                                                       Time (seconds)
Module                                       User      System        Wall        Calls

--------------------------------------------------------------------------------------

**************************************************************************************

Host: Mjolnir

Timers On : Mon Dec 21 16:55:35 2020
Timers Off: Mon Dec 21 16:55:35 2020

Wall Time:        0.65 seconds

                                                       Time (seconds)
Module                                       User      System        Wall        Calls

--------------------------------------------------------------------------------------

**************************************************************************************

Host: Mjolnir

Timers On : Mon Dec 21 16:56:46 2020
Timers Off: Mon Dec 21 16:56:47 2020

Wall Time:        0.65 seconds

                                                       Time (seconds)
Module                                       User      System        Wall        Calls

--------------------------------------------------------------------------------------

**************************************************************************************

Host: Mjolnir

Timers On : Mon Dec 21 16:56:45 2020
Timers Off: Mon Dec 21 16:56:47 2020

Wall Time:        1.41 seconds

                                                       Time (seconds)
Module                                       User      System        Wall        Calls

--------------------------------------------------------------------------------------

**************************************************************************************

Host: Mjolnir

Timers On : Mon Dec 21 16:57:55 2020
Timers Off: Mon Dec 21 16:57:55 2020

Wall Time:        0.65 seconds

                                                       Time (seconds)
Module                                       User      System        Wall        Calls

--------------------------------------------------------------------------------------

**************************************************************************************

Host: Mjolnir

Timers On : Mon Dec 21 16:57:54 2020
Timers Off: Mon Dec 21 16:57:55 2020

Wall Time:        1.42 seconds

                                                       Time (seconds)
Module                                       User      System        Wall        Calls

--------------------------------------------------------------------------------------

**************************************************************************************

Host: Mjolnir

Timers On : Mon Dec 21 17:02:12 2020
Timers Off: Mon Dec 21 17:02:13 2020

Wall Time:        0.64 seconds

                                                       Time (seconds)
Module                                       User      System        Wall        Calls

--------------------------------------------------------------------------------------

**************************************************************************************

Host: Mjolnir

Timers On : Mon Dec 21 17:02:11 2020
Timers Off: Mon Dec 21 17:02:13 2020

Wall Time:        1.42 seconds

                                                       Time (seconds)
Module                                       User      System        Wall        Calls

--------------------------------------------------------------------------------------

**************************************************************************************

Host: Mjolnir

Timers On : Mon Dec 21 17:02:59 2020
Timers Off: Mon Dec 21 17:03:00 2020

Wall Time:        0.65 seconds

                                                       Time (seconds)
Module                                       User      System        Wall        Calls

--------------------------------------------------------------------------------------

**************************************************************************************

Host: Mjolnir

Timers On : Mon Dec 21 17:02:58 2020
Timers Off: Mon Dec 21 17:03:00 2020

Wall Time:        1.42 seconds

                                                       Time (seconds)
Module                                       User      System        Wall        Calls

--------------------------------------------------------------------------------------

**************************************************************************************

Host: Mjolnir

Timers On : Mon Dec 21 17:03:45 2020
Timers Off: Mon Dec 21 17:03:46 2020

Wall Time:        0.64 seconds

                                                       Time (seconds)
Module                                       User      System        Wall        Calls

--------------------------------------------------------------------------------------

**************************************************************************************

Host: Mjolnir

Timers On : Mon Dec 21 17:03:45 2020
Timers Off: Mon Dec 21 17:03:46 2020

Wall Time:        1.41 seconds

                                                       Time (seconds)
Module                                       User      System        Wall        Calls

--------------------------------------------------------------------------------------

**************************************************************************************

Host: Mjolnir

Timers On : Mon Dec 21 17:04:24 2020
Timers Off: Mon Dec 21 17:04:25 2020

Wall Time:        0.64 seconds

                                                       Time (seconds)
Module                                       User      System        Wall        Calls

--------------------------------------------------------------------------------------

**************************************************************************************

Host: Mjolnir

Timers On : Mon Dec 21 17:04:23 2020
Timers Off: Mon Dec 21 17:04:25 2020

Wall Time:        1.41 seconds

                                                       Time (seconds)
Module                                       User      System        Wall        Calls

--------------------------------------------------------------------------------------

**************************************************************************************

Host: Mjolnir

Timers On : Mon Dec 21 17:04:55 2020
Timers Off: Mon Dec 21 17:04:56 2020

Wall Time:        0.64 seconds

                                                       Time (seconds)
Module                                       User      System        Wall        Calls

--------------------------------------------------------------------------------------

**************************************************************************************

Host: Mjolnir

Timers On : Mon Dec 21 17:04:55 2020
Timers Off: Mon Dec 21 17:04:56 2020

Wall Time:        1.41 seconds

                                                       Time (seconds)
Module                                       User      System        Wall        Calls

--------------------------------------------------------------------------------------

**************************************************************************************

Host: Mjolnir

Timers On : Mon Dec 21 17:08:30 2020
Timers Off: Mon Dec 21 17:08:31 2020

Wall Time:        0.64 seconds

                                                       Time (seconds)
Module                                       User      System        Wall        Calls

--------------------------------------------------------------------------------------

**************************************************************************************

Host: Mjolnir

Timers On : Mon Dec 21 17:08:30 2020
Timers Off: Mon Dec 21 17:08:31 2020

Wall Time:        1.43 seconds

                                                       Time (seconds)
Module                                       User      System        Wall        Calls

--------------------------------------------------------------------------------------

**************************************************************************************

Host: Mjolnir

Timers On : Mon Dec 21 17:10:06 2020
Timers Off: Mon Dec 21 17:10:06 2020

Wall Time:        0.64 seconds

                                                       Time (seconds)
Module                                       User      System        Wall        Calls

--------------------------------------------------------------------------------------

**************************************************************************************

Host: Mjolnir

Timers On : Mon Dec 21 17:10:05 2020
Timers Off: Mon Dec 21 17:10:06 2020

Wall Time:        1.41 seconds

                                                       Time (seconds)
Module                                       User      System        Wall        Calls

--------------------------------------------------------------------------------------

**************************************************************************************

Host: Mjolnir

Timers On : Mon Dec 21 17:12:46 2020
Timers Off: Mon Dec 21 17:12:47 2020

Wall Time:        0.64 seconds

                                                       Time (seconds)
Module                                       User      System        Wall        Calls

--------------------------------------------------------------------------------------

**************************************************************************************

Host: Mjolnir

Timers On : Mon Dec 21 17:12:45 2020
Timers Off: Mon Dec 21 17:12:47 2020

Wall Time:        1.42 seconds

                                                       Time (seconds)
Module                                       User      System        Wall        Calls

--------------------------------------------------------------------------------------

**************************************************************************************

Host: Mjolnir

Timers On : Mon Dec 21 17:13:43 2020
Timers Off: Mon Dec 21 17:13:43 2020

Wall Time:        0.64 seconds

                                                       Time (seconds)
Module                                       User      System        Wall        Calls

--------------------------------------------------------------------------------------

**************************************************************************************

Host: Mjolnir

Timers On : Mon Dec 21 17:13:42 2020
Timers Off: Mon Dec 21 17:13:44 2020

Wall Time:        1.42 seconds

                                                       Time (seconds)
Module                                       User      System        Wall        Calls

--------------------------------------------------------------------------------------

**************************************************************************************

Host: Mjolnir

Timers On : Mon Dec 21 17:17:42 2020
Timers Off: Mon Dec 21 17:17:43 2020

Wall Time:        0.64 seconds

                                                       Time (seconds)
Module                                       User      System        Wall        Calls

--------------------------------------------------------------------------------------

**************************************************************************************

Host: Mjolnir

Timers On : Mon Dec 21 17:17:42 2020
Timers Off: Mon Dec 21 17:17:43 2020

Wall Time:        1.42 seconds

                                                       Time (seconds)
Module                                       User      System        Wall        Calls

--------------------------------------------------------------------------------------

**************************************************************************************

Host: Mjolnir

Timers On : Mon Dec 21 22:27:21 2020
Timers Off: Mon Dec 21 22:27:28 2020

Wall Time:        7.11 seconds

                                                       Time (seconds)
Module                                       User      System        Wall        Calls

--------------------------------------------------------------------------------------

**************************************************************************************
