
    -----------------------------------------------------------------------
          Psi4: An Open-Source Ab Initio Electronic Structure Package
                               Psi4 1.4a2.dev478 

                         Git: Rev {master} f722895 dirty


    R. M. Parrish, L. A. Burns, D. G. A. Smith, A. C. Simmonett,
    A. E. DePrince III, E. G. Hohenstein, U. Bozkaya, A. Yu. Sokolov,
    R. Di Remigio, R. M. Richard, J. F. Gonthier, A. M. James,
    H. R. McAlexander, A. Kumar, M. Saitow, X. Wang, B. P. Pritchard,
    P. Verma, H. F. Schaefer III, K. Patkowski, R. A. King, E. F. Valeev,
    F. A. Evangelista, J. M. Turney, T. D. Crawford, and C. D. Sherrill,
    J. Chem. Theory Comput. 13(7) pp 3185--3197 (2017).
    (doi: 10.1021/acs.jctc.7b00174)


                         Additional Contributions by
    P. Kraus, H. Kruse, M. H. Lechner, M. C. Schieber, R. A. Shaw,
    A. Alenaizan, R. Galvelis, Z. L. Glick, S. Lehtola, and J. P. Misiewicz

    -----------------------------------------------------------------------


    Psi4 started on: Friday, 05 June 2020 11:36AM

    Process ID: 19177
    Host:       n048
    PSIDATADIR: /opt/psi/4/master/share/psi4
    Memory:     500.0 MiB
    Threads:    4
    
  ==> Input File <==

--------------------------------------------------------------------------
set memory 40Gb

molecule {
    C   -1.169969463277   -0.774717206180   -0.000125591694
    H   -1.617363853360   -1.211222498784   -0.890367785468
    H   -1.617435660392   -1.211409450888    0.889988062129
    C   -1.170009577263    0.774163982874    0.000044803127
    H   -1.617319943110    1.211616962893    0.890255779506
    H   -1.617268658760    1.211804064272   -0.890099371191
    C    0.356828087140    0.920209502894    0.000100311582
    H    0.841344900886    1.891638887734    0.000208959863
    O    0.760938793520    0.000191210170   -1.017879415043
    C    0.356746924273   -0.919987016579   -0.000075768566
    H    0.841178658805   -1.891458808534   -0.000150394652
    O    0.760868034077   -0.000004144244    1.017931993354
}

set {
    e_convergence 10
    d_convergence 10
    freeze_core True
    basis_guess True
    cc_type conv
    maxiter 300
}

E = energy('mp2/heavy-aug-cc-pV(Q+d)Z')
psi4.print_out("\n========================OPTAVC-XTPL==========================\n\n")
psi4.print_out("MP2/QZ correlation energy {}\n".format(variable("MP2 CORRELATION ENERGY")))
psi4.print_out("SCF/QZ reference energy {}\n".format(variable("CURRENT REFERENCE ENERGY")))
psi4.print_out("\n\n=============================================================\n")

E = energy('mp2/heavy-aug-cc-pV(T+d)Z')
psi4.print_out("\n========================OPTAVC-XTPL==========================\n\n")
psi4.print_out("MP2/TZ correlation energy {}".format(variable("MP2 CORRELATION ENERGY")))
psi4.print_out("\n\n=============================================================\n")
--------------------------------------------------------------------------

Scratch directory: /tmp/

Scratch directory: /tmp/
    SCF Algorithm Type (re)set to DF.

*** tstart() called on n048
*** at Fri Jun  5 11:36:05 2020


  //>>>>>>>>>>>>>>>>>>>>>>>>>>>>>>>>>>>//
  //      Guess SCF, pcseg-0 Basis     //
  //<<<<<<<<<<<<<<<<<<<<<<<<<<<<<<<<<<<//

   => Loading Basis Set <=

    Name: PCSEG-0
    Role: ORBITAL
    Keyword: BASIS
    atoms 1, 4, 7, 10     entry C          line    71 file /opt/psi/4/master/share/psi4/basis/pcseg-0.gbs 
    atoms 2-3, 5-6, 8, 11 entry H          line    13 file /opt/psi/4/master/share/psi4/basis/pcseg-0.gbs 
    atoms 9, 12           entry O          line   103 file /opt/psi/4/master/share/psi4/basis/pcseg-0.gbs 


         ---------------------------------------------------------
                           SCF Castup computation                  
         ---------------------------------------------------------
                                   SCF
               by Justin Turney, Rob Parrish, Andy Simmonett
                          and Daniel G. A. Smith
                              RHF Reference
                        4 Threads,    500 MiB Core
         ---------------------------------------------------------

  ==> Geometry <==

    Molecular point group: c1
    Full point group: C1

    Geometry (in Angstrom), charge = 0, multiplicity = 1:

       Center              X                  Y                   Z               Mass       
    ------------   -----------------  -----------------  -----------------  -----------------
         C           -1.169969463277    -0.774717206180    -0.000125591694    12.000000000000
         H           -1.617363853360    -1.211222498784    -0.890367785468     1.007825032230
         H           -1.617435660392    -1.211409450888     0.889988062129     1.007825032230
         C           -1.170009577263     0.774163982874     0.000044803127    12.000000000000
         H           -1.617319943110     1.211616962893     0.890255779506     1.007825032230
         H           -1.617268658760     1.211804064272    -0.890099371191     1.007825032230
         C            0.356828087140     0.920209502894     0.000100311582    12.000000000000
         H            0.841344900886     1.891638887734     0.000208959863     1.007825032230
         O            0.760938793520     0.000191210170    -1.017879415043    15.994914619570
         C            0.356746924273    -0.919987016579    -0.000075768566    12.000000000000
         H            0.841178658805    -1.891458808534    -0.000150394652     1.007825032230
         O            0.760868034077    -0.000004144244     1.017931993354    15.994914619570

  Running in c1 symmetry.

  Rotational constants: A =      0.20025  B =      0.16408  C =      0.14756 [cm^-1]
  Rotational constants: A =   6003.46666  B =   4918.95043  C =   4423.75398 [MHz]
  Nuclear repulsion =  258.056195758512843

  Charge       = 0
  Multiplicity = 1
  Electrons    = 46
  Nalpha       = 23
  Nbeta        = 23

  ==> Algorithm <==

  SCF Algorithm Type is DF.
  DIIS enabled.
  MOM disabled.
  Fractional occupation disabled.
  Guess Type is SAD.
  Energy threshold   = 1.00e-10
  Density threshold  = 1.00e-10
  Integral threshold = 0.00e+00

  ==> Primary Basis <==

  Basis Set: PCSEG-0
    Blend: PCSEG-0
    Number of shells: 42
    Number of basis function: 66
    Number of Cartesian functions: 66
    Spherical Harmonics?: true
    Max angular momentum: 1

   => Loading Basis Set <=

    Name: (PCSEG-0 AUX)
    Role: JKFIT
    Keyword: DF_BASIS_SCF
    atoms 1, 4, 7, 10     entry C          line   198 file /opt/psi/4/master/share/psi4/basis/def2-universal-jkfit.gbs 
    atoms 2-3, 5-6, 8, 11 entry H          line    18 file /opt/psi/4/master/share/psi4/basis/def2-universal-jkfit.gbs 
    atoms 9, 12           entry O          line   318 file /opt/psi/4/master/share/psi4/basis/def2-universal-jkfit.gbs 

  ==> Integral Setup <==

  ==> DiskDFJK: Density-Fitted J/K Matrices <==

    J tasked:                  Yes
    K tasked:                  Yes
    wK tasked:                  No
    OpenMP threads:              4
    Integrals threads:           4
    Memory [MiB]:              375
    Algorithm:                Core
    Integral Cache:           NONE
    Schwarz Cutoff:          1E-12
    Fitting Condition:       1E-10

   => Auxiliary Basis Set <=

  Basis Set: (PCSEG-0 AUX)
    Blend: DEF2-UNIVERSAL-JKFIT
    Number of shells: 186
    Number of basis function: 562
    Number of Cartesian functions: 662
    Spherical Harmonics?: true
    Max angular momentum: 4

  Minimum eigenvalue in the overlap matrix is 1.2772328147E-03.
  Reciprocal condition number of the overlap matrix is 2.1027216444E-04.
    Using symmetric orthogonalization.

  ==> Pre-Iterations <==

  SCF Guess: Superposition of Atomic Densities via on-the-fly atomic UHF (no occupation information).

   -------------------------
    Irrep   Nso     Nmo    
   -------------------------
     A         66      66 
   -------------------------
    Total      66      66
   -------------------------

  ==> Iterations <==

                           Total Energy        Delta E     RMS |[F,P]|

   @DF-RHF iter SAD:  -303.78252271531568   -3.03783e+02   0.00000e+00 
   @DF-RHF iter   1:  -303.56525308635054    2.17270e-01   7.20826e-03 DIIS
   @DF-RHF iter   2:  -303.66412641503513   -9.88733e-02   3.86593e-03 DIIS
   @DF-RHF iter   3:  -303.68846402664332   -2.43376e-02   6.09795e-04 DIIS
   @DF-RHF iter   4:  -303.68960386090083   -1.13983e-03   1.89591e-04 DIIS
   @DF-RHF iter   5:  -303.68969221305235   -8.83522e-05   4.00995e-05 DIIS
   @DF-RHF iter   6:  -303.68969932708740   -7.11404e-06   8.08707e-06 DIIS
   @DF-RHF iter   7:  -303.68969969842021   -3.71333e-07   1.66757e-06 DIIS
   @DF-RHF iter   8:  -303.68969971147379   -1.30536e-08   5.22825e-07 DIIS
   @DF-RHF iter   9:  -303.68969971280256   -1.32877e-09   1.00038e-07 DIIS
   @DF-RHF iter  10:  -303.68969971286538   -6.28120e-11   1.69088e-08 DIIS
   @DF-RHF iter  11:  -303.68969971286754   -2.16005e-12   2.48438e-09 DIIS
   @DF-RHF iter  12:  -303.68969971286725    2.84217e-13   4.20137e-10 DIIS
   @DF-RHF iter  13:  -303.68969971286759   -3.41061e-13   1.27021e-10 DIIS
   @DF-RHF iter  14:  -303.68969971286759    0.00000e+00   2.87495e-11 DIIS
  Energy and wave function converged.


  ==> Post-Iterations <==

    Orbital Energies [Eh]
    ---------------------

    Doubly Occupied:                                                      

       1A    -20.583850     2A    -20.583783     3A    -11.368394  
       4A    -11.368387     5A    -11.254754     6A    -11.254349  
       7A     -1.548718     8A     -1.317312     9A     -1.091103  
      10A     -1.011068    11A     -0.822334    12A     -0.787956  
      13A     -0.770565    14A     -0.684677    15A     -0.664468  
      16A     -0.661713    17A     -0.555080    18A     -0.534210  
      19A     -0.528189    20A     -0.525392    21A     -0.518452  
      22A     -0.467600    23A     -0.441337  

    Virtual:                                                              

      24A      0.203706    25A      0.232868    26A      0.236704  
      27A      0.242110    28A      0.254714    29A      0.267674  
      30A      0.316027    31A      0.352101    32A      0.354246  
      33A      0.388122    34A      0.408785    35A      0.474133  
      36A      0.575640    37A      0.796105    38A      0.799766  
      39A      0.821253    40A      0.924862    41A      0.934063  
      42A      0.944522    43A      0.951666    44A      1.004525  
      45A      1.005306    46A      1.033555    47A      1.061473  
      48A      1.071754    49A      1.136259    50A      1.149992  
      51A      1.171627    52A      1.172907    53A      1.210649  
      54A      1.239243    55A      1.421982    56A      1.454339  
      57A      1.484697    58A      1.525900    59A      1.692303  
      60A      1.710087    61A      1.929897    62A      1.952675  
      63A      2.144803    64A      2.303200    65A      2.379048  
      66A      2.449445  

    Final Occupation by Irrep:
              A 
    DOCC [    23 ]

  @DF-RHF Final Energy:  -303.68969971286759

   => Energetics <=

    Nuclear Repulsion Energy =            258.0561957585128425
    One-Electron Energy =                -924.8044066224977087
    Two-Electron Energy =                 363.0585111511173295
    Total Energy =                       -303.6896997128675935

Computation Completed

  //>>>>>>>>>>>>>>>>>>>>>>>>>>>>>>>>>>>//
  //                SCF                //
  //<<<<<<<<<<<<<<<<<<<<<<<<<<<<<<<<<<<//

   => Loading Basis Set <=

    Name: HEAVY-AUG-CC-PV(Q+D)Z
    Role: ORBITAL
    Keyword: BASIS
    atoms 1, 4, 7, 10     entry C          line   333 file /opt/psi/4/master/share/psi4/basis/heavy-aug-cc-pv_qpd_z.gbs 
    atoms 2-3, 5-6, 8, 11 entry H          line    86 file /opt/psi/4/master/share/psi4/basis/heavy-aug-cc-pv_qpd_z.gbs 
    atoms 9, 12           entry O          line   453 file /opt/psi/4/master/share/psi4/basis/heavy-aug-cc-pv_qpd_z.gbs 


         ---------------------------------------------------------
                                   SCF
               by Justin Turney, Rob Parrish, Andy Simmonett
                          and Daniel G. A. Smith
                              RHF Reference
                        4 Threads,    500 MiB Core
         ---------------------------------------------------------

  ==> Geometry <==

    Molecular point group: c1
    Full point group: C1

    Geometry (in Angstrom), charge = 0, multiplicity = 1:

       Center              X                  Y                   Z               Mass       
    ------------   -----------------  -----------------  -----------------  -----------------
         C           -1.169969463277    -0.774717206180    -0.000125591694    12.000000000000
         H           -1.617363853360    -1.211222498784    -0.890367785468     1.007825032230
         H           -1.617435660392    -1.211409450888     0.889988062129     1.007825032230
         C           -1.170009577263     0.774163982874     0.000044803127    12.000000000000
         H           -1.617319943110     1.211616962893     0.890255779506     1.007825032230
         H           -1.617268658760     1.211804064272    -0.890099371191     1.007825032230
         C            0.356828087140     0.920209502894     0.000100311582    12.000000000000
         H            0.841344900886     1.891638887734     0.000208959863     1.007825032230
         O            0.760938793520     0.000191210170    -1.017879415043    15.994914619570
         C            0.356746924273    -0.919987016579    -0.000075768566    12.000000000000
         H            0.841178658805    -1.891458808534    -0.000150394652     1.007825032230
         O            0.760868034077    -0.000004144244     1.017931993354    15.994914619570

  Running in c1 symmetry.

  Rotational constants: A =      0.20025  B =      0.16408  C =      0.14756 [cm^-1]
  Rotational constants: A =   6003.46666  B =   4918.95043  C =   4423.75398 [MHz]
  Nuclear repulsion =  258.056195758512843

  Charge       = 0
  Multiplicity = 1
  Electrons    = 46
  Nalpha       = 23
  Nbeta        = 23

  ==> Algorithm <==

  SCF Algorithm Type is DF.
  DIIS enabled.
  MOM disabled.
  Fractional occupation disabled.
  Guess Type is SAD.
  Energy threshold   = 1.00e-10
  Density threshold  = 1.00e-10
  Integral threshold = 0.00e+00

  ==> Primary Basis <==

  Basis Set: HEAVY-AUG-CC-PV(Q+D)Z
    Blend: HEAVY-AUG-CC-PV(Q+D)Z
    Number of shells: 180
    Number of basis function: 660
    Number of Cartesian functions: 840
    Spherical Harmonics?: true
    Max angular momentum: 4

   => Loading Basis Set <=

    Name: (HEAVY-AUG-CC-PV(Q+D)Z AUX)
    Role: JKFIT
    Keyword: DF_BASIS_SCF
    atoms 1, 4, 7, 10     entry C          line   214 file /opt/psi/4/master/share/psi4/basis/heavy-aug-cc-pvqz-jkfit.gbs 
    atoms 2-3, 5-6, 8, 11 entry H          line   116 file /opt/psi/4/master/share/psi4/basis/heavy-aug-cc-pvqz-jkfit.gbs 
    atoms 9, 12           entry O          line   354 file /opt/psi/4/master/share/psi4/basis/heavy-aug-cc-pvqz-jkfit.gbs 


  Computing basis projection from PCSEG-0 to HEAVY-AUG-CC-PV(Q+D)Z

  ==> Integral Setup <==

  ==> DiskDFJK: Density-Fitted J/K Matrices <==

    J tasked:                  Yes
    K tasked:                  Yes
    wK tasked:                  No
    OpenMP threads:              4
    Integrals threads:           4
    Memory [MiB]:              375
    Algorithm:                Disk
    Integral Cache:           NONE
    Schwarz Cutoff:          1E-12
    Fitting Condition:       1E-10

   => Auxiliary Basis Set <=

  Basis Set: (HEAVY-AUG-CC-PV(Q+D)Z AUX)
    Blend: HEAVY-AUG-CC-PVQZ-JKFIT
    Number of shells: 282
    Number of basis function: 1158
    Number of Cartesian functions: 1584
    Spherical Harmonics?: true
    Max angular momentum: 5

  Minimum eigenvalue in the overlap matrix is 1.0734122515E-06.
  Reciprocal condition number of the overlap matrix is 6.8720628818E-08.
    Using symmetric orthogonalization.

  ==> Pre-Iterations <==

  SCF Guess: Orbitals guess was supplied from a previous computation.

   -------------------------
    Irrep   Nso     Nmo    
   -------------------------
     A        660     660 
   -------------------------
    Total     660     660
   -------------------------

  ==> Iterations <==

                           Total Energy        Delta E     RMS |[F,P]|

   @DF-RHF iter   0:  -304.22025824134982   -3.04220e+02   4.49018e-03 
   @DF-RHF iter   1:  -304.73499306202262   -5.14735e-01   3.39649e-04 DIIS
   @DF-RHF iter   2:  -304.75115140936697   -1.61583e-02   1.55020e-04 DIIS
   @DF-RHF iter   3:  -304.75507176735772   -3.92036e-03   2.79070e-05 DIIS
   @DF-RHF iter   4:  -304.75534520274323   -2.73435e-04   7.95879e-06 DIIS
   @DF-RHF iter   5:  -304.75536642481609   -2.12221e-05   3.36915e-06 DIIS
   @DF-RHF iter   6:  -304.75536968462922   -3.25981e-06   8.32119e-07 DIIS
   @DF-RHF iter   7:  -304.75536996799167   -2.83362e-07   1.75369e-07 DIIS
   @DF-RHF iter   8:  -304.75536998182037   -1.38287e-08   4.58393e-08 DIIS
   @DF-RHF iter   9:  -304.75536998285537   -1.03500e-09   1.49159e-08 DIIS
   @DF-RHF iter  10:  -304.75536998294740   -9.20295e-11   3.66215e-09 DIIS
   @DF-RHF iter  11:  -304.75536998295439   -6.99174e-12   9.20669e-10 DIIS
   @DF-RHF iter  12:  -304.75536998295473   -3.41061e-13   2.66030e-10 DIIS
   @DF-RHF iter  13:  -304.75536998295439    3.41061e-13   4.36646e-11 DIIS
  Energy and wave function converged.


  ==> Post-Iterations <==

    Orbital Energies [Eh]
    ---------------------

    Doubly Occupied:                                                      

       1A    -20.564299     2A    -20.564261     3A    -11.346886  
       4A    -11.346859     5A    -11.235155     6A    -11.234583  
       7A     -1.500692     8A     -1.296007     9A     -1.066528  
      10A     -0.989873    11A     -0.810533    12A     -0.787481  
      13A     -0.749031    14A     -0.676496    15A     -0.657279  
      16A     -0.645424    17A     -0.537646    18A     -0.525371  
      19A     -0.519143    20A     -0.511798    21A     -0.508881  
      22A     -0.460244    23A     -0.431541  

    Virtual:                                                              

      24A      0.041674    25A      0.042969    26A      0.050514  
      27A      0.062647    28A      0.063961    29A      0.079816  
      30A      0.080062    31A      0.083462    32A      0.101516  
      33A      0.110291    34A      0.111768    35A      0.112235  
      36A      0.139410    37A      0.151934    38A      0.166520  
      39A      0.171529    40A      0.178375    41A      0.178845  
      42A      0.188715    43A      0.188987    44A      0.199223  
      45A      0.207555    46A      0.226248    47A      0.227069  
      48A      0.230200    49A      0.258050    50A      0.261576  
      51A      0.270730    52A      0.271375    53A      0.272942  
      54A      0.287067    55A      0.288265    56A      0.291645  
      57A      0.301319    58A      0.316682    59A      0.319864  
      60A      0.325860    61A      0.333513    62A      0.338424  
      63A      0.356644    64A      0.358182    65A      0.370128  
      66A      0.381329    67A      0.388255    68A      0.390840  
      69A      0.391783    70A      0.392672    71A      0.399348  
      72A      0.399380    73A      0.413518    74A      0.420630  
      75A      0.421951    76A      0.440214    77A      0.452939  
      78A      0.457617    79A      0.465874    80A      0.495282  
      81A      0.517044    82A      0.518924    83A      0.523930  
      84A      0.528054    85A      0.550582    86A      0.572878  
      87A      0.575688    88A      0.586266    89A      0.590181  
      90A      0.598513    91A      0.600930    92A      0.614777  
      93A      0.629709    94A      0.642263    95A      0.656518  
      96A      0.659720    97A      0.686967    98A      0.690315  
      99A      0.697060   100A      0.704705   101A      0.716225  
     102A      0.721646   103A      0.735132   104A      0.744995  
     105A      0.759891   106A      0.766559   107A      0.790062  
     108A      0.791660   109A      0.794859   110A      0.796295  
     111A      0.828607   112A      0.832207   113A      0.833913  
     114A      0.850057   115A      0.860611   116A      0.876202  
     117A      0.885288   118A      0.898076   119A      0.920648  
     120A      0.939388   121A      0.948142   122A      0.960285  
     123A      0.960917   124A      0.987423   125A      1.002426  
     126A      1.010042   127A      1.012644   128A      1.017663  
     129A      1.034874   130A      1.035289   131A      1.047526  
     132A      1.060649   133A      1.071495   134A      1.074840  
     135A      1.097985   136A      1.114305   137A      1.129121  
     138A      1.140955   139A      1.154362   140A      1.160382  
     141A      1.160993   142A      1.166895   143A      1.167454  
     144A      1.177513   145A      1.190959   146A      1.198644  
     147A      1.209756   148A      1.222560   149A      1.230987  
     150A      1.235244   151A      1.238316   152A      1.240263  
     153A      1.246858   154A      1.276470   155A      1.278371  
     156A      1.288990   157A      1.289632   158A      1.306550  
     159A      1.315456   160A      1.329642   161A      1.371362  
     162A      1.373664   163A      1.410060   164A      1.410920  
     165A      1.436390   166A      1.442581   167A      1.459491  
     168A      1.469882   169A      1.477119   170A      1.487220  
     171A      1.490786   172A      1.510023   173A      1.525701  
     174A      1.534696   175A      1.544970   176A      1.594772  
     177A      1.595365   178A      1.620304   179A      1.622891  
     180A      1.626052   181A      1.626680   182A      1.646621  
     183A      1.684327   184A      1.686517   185A      1.701319  
     186A      1.724004   187A      1.727625   188A      1.734264  
     189A      1.754691   190A      1.777166   191A      1.779266  
     192A      1.813997   193A      1.867210   194A      1.875383  
     195A      1.887261   196A      1.898840   197A      1.909153  
     198A      1.927990   199A      1.960754   200A      1.968513  
     201A      1.998963   202A      2.000488   203A      2.017411  
     204A      2.022284   205A      2.026944   206A      2.029949  
     207A      2.035018   208A      2.038991   209A      2.045101  
     210A      2.106283   211A      2.116065   212A      2.126299  
     213A      2.142483   214A      2.145971   215A      2.173582  
     216A      2.189729   217A      2.189958   218A      2.212274  
     219A      2.255089   220A      2.261701   221A      2.270488  
     222A      2.296239   223A      2.301622   224A      2.309397  
     225A      2.339356   226A      2.342057   227A      2.362214  
     228A      2.364499   229A      2.366106   230A      2.376965  
     231A      2.390805   232A      2.400945   233A      2.407215  
     234A      2.423087   235A      2.442901   236A      2.448160  
     237A      2.460371   238A      2.487493   239A      2.492596  
     240A      2.518926   241A      2.527477   242A      2.536904  
     243A      2.547424   244A      2.561303   245A      2.590029  
     246A      2.594495   247A      2.622143   248A      2.634924  
     249A      2.635384   250A      2.648902   251A      2.666359  
     252A      2.683320   253A      2.701579   254A      2.719300  
     255A      2.734119   256A      2.735147   257A      2.754050  
     258A      2.766147   259A      2.766743   260A      2.801960  
     261A      2.807358   262A      2.807771   263A      2.835757  
     264A      2.861970   265A      2.870293   266A      2.923679  
     267A      2.941351   268A      2.945583   269A      2.970741  
     270A      2.977379   271A      2.988865   272A      2.992873  
     273A      3.010000   274A      3.033491   275A      3.043671  
     276A      3.051666   277A      3.078451   278A      3.083601  
     279A      3.084132   280A      3.106183   281A      3.111561  
     282A      3.137686   283A      3.148447   284A      3.156258  
     285A      3.175127   286A      3.189961   287A      3.229329  
     288A      3.249806   289A      3.260037   290A      3.270298  
     291A      3.291332   292A      3.297522   293A      3.322583  
     294A      3.364173   295A      3.368755   296A      3.400715  
     297A      3.403646   298A      3.406724   299A      3.434266  
     300A      3.457004   301A      3.464912   302A      3.480814  
     303A      3.503550   304A      3.523476   305A      3.537556  
     306A      3.554024   307A      3.574598   308A      3.599446  
     309A      3.614031   310A      3.619350   311A      3.641264  
     312A      3.664291   313A      3.694156   314A      3.706819  
     315A      3.716539   316A      3.748889   317A      3.754315  
     318A      3.757562   319A      3.810052   320A      3.836596  
     321A      3.846341   322A      3.846848   323A      3.877211  
     324A      3.909008   325A      3.910737   326A      3.921555  
     327A      3.951849   328A      3.965026   329A      3.984665  
     330A      4.043696   331A      4.048548   332A      4.050998  
     333A      4.062843   334A      4.086004   335A      4.100963  
     336A      4.120977   337A      4.139562   338A      4.157921  
     339A      4.172937   340A      4.203835   341A      4.206193  
     342A      4.219683   343A      4.243339   344A      4.249690  
     345A      4.276823   346A      4.296142   347A      4.317141  
     348A      4.336970   349A      4.340283   350A      4.364868  
     351A      4.408770   352A      4.435513   353A      4.446844  
     354A      4.457674   355A      4.470194   356A      4.490560  
     357A      4.500569   358A      4.513376   359A      4.525343  
     360A      4.541800   361A      4.571032   362A      4.598000  
     363A      4.637704   364A      4.662183   365A      4.676444  
     366A      4.698606   367A      4.699375   368A      4.707841  
     369A      4.719903   370A      4.747118   371A      4.758606  
     372A      4.763681   373A      4.788996   374A      4.830904  
     375A      4.835423   376A      4.835788   377A      4.848620  
     378A      4.860777   379A      4.913673   380A      4.944924  
     381A      4.988882   382A      5.007508   383A      5.010879  
     384A      5.035561   385A      5.062276   386A      5.124628  
     387A      5.172049   388A      5.175582   389A      5.186228  
     390A      5.245385   391A      5.255498   392A      5.258162  
     393A      5.285293   394A      5.296047   395A      5.311430  
     396A      5.348106   397A      5.368073   398A      5.391772  
     399A      5.424098   400A      5.503690   401A      5.525549  
     402A      5.555418   403A      5.596490   404A      5.637649  
     405A      5.660250   406A      5.661272   407A      5.677778  
     408A      5.794229   409A      5.837833   410A      5.838922  
     411A      5.844756   412A      5.909800   413A      5.976633  
     414A      6.039358   415A      6.108072   416A      6.148174  
     417A      6.192016   418A      6.220811   419A      6.234614  
     420A      6.242091   421A      6.296648   422A      6.339949  
     423A      6.344565   424A      6.348786   425A      6.371650  
     426A      6.399256   427A      6.422459   428A      6.464077  
     429A      6.490687   430A      6.497219   431A      6.514592  
     432A      6.526504   433A      6.540005   434A      6.583071  
     435A      6.586716   436A      6.619003   437A      6.642178  
     438A      6.648602   439A      6.655516   440A      6.690072  
     441A      6.702352   442A      6.705403   443A      6.717602  
     444A      6.755081   445A      6.774714   446A      6.786777  
     447A      6.815283   448A      6.821436   449A      6.856409  
     450A      6.896913   451A      6.908938   452A      6.920349  
     453A      6.923692   454A      6.924219   455A      6.947505  
     456A      6.980284   457A      6.995793   458A      7.014865  
     459A      7.040365   460A      7.095646   461A      7.106861  
     462A      7.111004   463A      7.138158   464A      7.160341  
     465A      7.180736   466A      7.195009   467A      7.207889  
     468A      7.223270   469A      7.224831   470A      7.254781  
     471A      7.280886   472A      7.312019   473A      7.360738  
     474A      7.369837   475A      7.372029   476A      7.420927  
     477A      7.440324   478A      7.442378   479A      7.477385  
     480A      7.541572   481A      7.546399   482A      7.601978  
     483A      7.605582   484A      7.618155   485A      7.641613  
     486A      7.721345   487A      7.732865   488A      7.751139  
     489A      7.757003   490A      7.785106   491A      7.818570  
     492A      7.840934   493A      7.848337   494A      7.860709  
     495A      7.925000   496A      7.951268   497A      7.954226  
     498A      7.989387   499A      7.999059   500A      8.023208  
     501A      8.026298   502A      8.049965   503A      8.093892  
     504A      8.118115   505A      8.153724   506A      8.158119  
     507A      8.198578   508A      8.207193   509A      8.328729  
     510A      8.337246   511A      8.342475   512A      8.356046  
     513A      8.388878   514A      8.421366   515A      8.427022  
     516A      8.484928   517A      8.508365   518A      8.510807  
     519A      8.530502   520A      8.556079   521A      8.567973  
     522A      8.594800   523A      8.611245   524A      8.616539  
     525A      8.656301   526A      8.697119   527A      8.711972  
     528A      8.720993   529A      8.766732   530A      8.816449  
     531A      8.831403   532A      8.840775   533A      8.843690  
     534A      8.847199   535A      8.891071   536A      8.901382  
     537A      8.929345   538A      8.942770   539A      8.958439  
     540A      9.010077   541A      9.017620   542A      9.029269  
     543A      9.038427   544A      9.048733   545A      9.067437  
     546A      9.085895   547A      9.111168   548A      9.118650  
     549A      9.173357   550A      9.180305   551A      9.191714  
     552A      9.236400   553A      9.252874   554A      9.314195  
     555A      9.344515   556A      9.353389   557A      9.357078  
     558A      9.368727   559A      9.400288   560A      9.452644  
     561A      9.503847   562A      9.515136   563A      9.528521  
     564A      9.557194   565A      9.652005   566A      9.660996  
     567A      9.727404   568A      9.761159   569A      9.773421  
     570A      9.798156   571A      9.834981   572A      9.898231  
     573A      9.924902   574A      9.932797   575A      9.962297  
     576A     10.071248   577A     10.115278   578A     10.233418  
     579A     10.242985   580A     10.257768   581A     10.293328  
     582A     10.419437   583A     10.480326   584A     10.502935  
     585A     10.516070   586A     10.589123   587A     10.627141  
     588A     10.648823   589A     10.782784   590A     10.791498  
     591A     10.822133   592A     10.826465   593A     10.968699  
     594A     11.005005   595A     11.058899   596A     11.083838  
     597A     11.097510   598A     11.107487   599A     11.146785  
     600A     11.151907   601A     11.177011   602A     11.220019  
     603A     11.235515   604A     11.258351   605A     11.351344  
     606A     11.387385   607A     11.457342   608A     11.465283  
     609A     11.512723   610A     11.513947   611A     11.526719  
     612A     11.557615   613A     11.635237   614A     11.657848  
     615A     11.744241   616A     11.829138   617A     11.848401  
     618A     11.884418   619A     11.908658   620A     11.927883  
     621A     12.220234   622A     12.278273   623A     12.317047  
     624A     12.400162   625A     12.664383   626A     12.677410  
     627A     12.821800   628A     12.908948   629A     12.949918  
     630A     13.058166   631A     13.097490   632A     13.114410  
     633A     13.196167   634A     13.236511   635A     13.267168  
     636A     13.357709   637A     13.389878   638A     13.401494  
     639A     13.426252   640A     13.532491   641A     13.535584  
     642A     13.555052   643A     13.742422   644A     13.751036  
     645A     13.819545   646A     13.820883   647A     13.867483  
     648A     13.932456   649A     14.007237   650A     14.018795  
     651A     14.164465   652A     14.172681   653A     14.730334  
     654A     14.927184   655A     27.318016   656A     27.906050  
     657A     28.047662   658A     28.608545   659A     44.849596  
     660A     45.764709  

    Final Occupation by Irrep:
              A 
    DOCC [    23 ]

  @DF-RHF Final Energy:  -304.75536998295439

   => Energetics <=

    Nuclear Repulsion Energy =            258.0561957585128425
    One-Electron Energy =                -927.6911070746310770
    Two-Electron Energy =                 364.8795413331637860
    Total Energy =                       -304.7553699829543916

Computation Completed


Properties will be evaluated at   0.000000,   0.000000,   0.000000 [a0]

Properties computed using the SCF density matrix

  Nuclear Dipole Moment: [e a0]
     X:    -4.4802      Y:     0.0009      Z:    -0.0002

  Electronic Dipole Moment: [e a0]
     X:     3.7442      Y:    -0.0009      Z:     0.0001

  Dipole Moment: [e a0]
     X:    -0.7361      Y:    -0.0000      Z:    -0.0000     Total:     0.7361

  Dipole Moment: [D]
     X:    -1.8709      Y:    -0.0000      Z:    -0.0001     Total:     1.8709


*** tstop() called on n048 at Fri Jun  5 11:36:42 2020
Module time:
	user time   =     134.88 seconds =       2.25 minutes
	system time =       6.45 seconds =       0.11 minutes
	total time  =         37 seconds =       0.62 minutes
Total time:
	user time   =     134.88 seconds =       2.25 minutes
	system time =       6.45 seconds =       0.11 minutes
	total time  =         37 seconds =       0.62 minutes

*** tstart() called on n048
*** at Fri Jun  5 11:36:42 2020


  //>>>>>>>>>>>>>>>>>>>>>>>>>>>>>>>>>>>//
  //               DFMP2               //
  //<<<<<<<<<<<<<<<<<<<<<<<<<<<<<<<<<<<//

   => Loading Basis Set <=

    Name: (HEAVY-AUG-CC-PV(Q+D)Z AUX)
    Role: RIFIT
    Keyword: DF_BASIS_MP2
    atoms 1, 4, 7, 10     entry C          line   180 file /opt/psi/4/master/share/psi4/basis/heavy-aug-cc-pvqz-ri.gbs 
    atoms 2-3, 5-6, 8, 11 entry H          line    44 file /opt/psi/4/master/share/psi4/basis/heavy-aug-cc-pvqz-ri.gbs 
    atoms 9, 12           entry O          line   328 file /opt/psi/4/master/share/psi4/basis/heavy-aug-cc-pvqz-ri.gbs 

	 --------------------------------------------------------
	                          DF-MP2                         
	      2nd-Order Density-Fitted Moller-Plesset Theory     
	              RMP2 Wavefunction,   4 Threads             
	                                                         
	        Rob Parrish, Justin Turney, Andy Simmonett,      
	           Ed Hohenstein, and C. David Sherrill          
	 --------------------------------------------------------

   => Auxiliary Basis Set <=

  Basis Set: (HEAVY-AUG-CC-PV(Q+D)Z AUX)
    Blend: HEAVY-AUG-CC-PVQZ-RI
    Number of shells: 306
    Number of basis function: 1338
    Number of Cartesian functions: 1842
    Spherical Harmonics?: true
    Max angular momentum: 5

	 --------------------------------------------------------
	                 NBF =   660, NAUX =  1338
	 --------------------------------------------------------
	   CLASS    FOCC     OCC    AOCC    AVIR     VIR    FVIR
	   PAIRS       6      23      17     637     637       0
	 --------------------------------------------------------

	-----------------------------------------------------------
	 ==================> DF-MP2 Energies <==================== 
	-----------------------------------------------------------
	 Reference Energy          =    -304.7553699829543916 [Eh]
	 Singles Energy            =      -0.0000000000000000 [Eh]
	 Same-Spin Energy          =      -0.2937643148188441 [Eh]
	 Opposite-Spin Energy      =      -0.9223762810987569 [Eh]
	 Correlation Energy        =      -1.2161405959176010 [Eh]
	 Total Energy              =    -305.9715105788719711 [Eh]
	-----------------------------------------------------------
	 ================> DF-SCS-MP2 Energies <================== 
	-----------------------------------------------------------
	 SCS Same-Spin Scale       =       0.3333333333333333 [-]
	 SCS Opposite-Spin Scale   =       1.2000000000000000 [-]
	 SCS Same-Spin Energy      =      -0.0979214382729480 [Eh]
	 SCS Opposite-Spin Energy  =      -1.1068515373185082 [Eh]
	 SCS Correlation Energy    =      -1.2047729755914562 [Eh]
	 SCS Total Energy          =    -305.9601429585458732 [Eh]
	-----------------------------------------------------------


*** tstop() called on n048 at Fri Jun  5 11:36:50 2020
Module time:
	user time   =      28.45 seconds =       0.47 minutes
	system time =       0.36 seconds =       0.01 minutes
	total time  =          8 seconds =       0.13 minutes
Total time:
	user time   =     163.33 seconds =       2.72 minutes
	system time =       6.81 seconds =       0.11 minutes
	total time  =         45 seconds =       0.75 minutes

========================OPTAVC-XTPL==========================

MP2/QZ correlation energy -1.216140595917601
SCF/QZ reference energy -304.7553699829544


=============================================================

Scratch directory: /tmp/

Scratch directory: /tmp/
    SCF Algorithm Type (re)set to DF.

*** tstart() called on n048
*** at Fri Jun  5 11:36:50 2020


  //>>>>>>>>>>>>>>>>>>>>>>>>>>>>>>>>>>>//
  //      Guess SCF, pcseg-0 Basis     //
  //<<<<<<<<<<<<<<<<<<<<<<<<<<<<<<<<<<<//

   => Loading Basis Set <=

    Name: PCSEG-0
    Role: ORBITAL
    Keyword: BASIS
    atoms 1, 4, 7, 10     entry C          line    71 file /opt/psi/4/master/share/psi4/basis/pcseg-0.gbs 
    atoms 2-3, 5-6, 8, 11 entry H          line    13 file /opt/psi/4/master/share/psi4/basis/pcseg-0.gbs 
    atoms 9, 12           entry O          line   103 file /opt/psi/4/master/share/psi4/basis/pcseg-0.gbs 


         ---------------------------------------------------------
                           SCF Castup computation                  
         ---------------------------------------------------------
                                   SCF
               by Justin Turney, Rob Parrish, Andy Simmonett
                          and Daniel G. A. Smith
                              RHF Reference
                        4 Threads,    500 MiB Core
         ---------------------------------------------------------

  ==> Geometry <==

    Molecular point group: c1
    Full point group: C1

    Geometry (in Angstrom), charge = 0, multiplicity = 1:

       Center              X                  Y                   Z               Mass       
    ------------   -----------------  -----------------  -----------------  -----------------
         C           -1.169969463277    -0.774717206180    -0.000125591694    12.000000000000
         H           -1.617363853360    -1.211222498784    -0.890367785468     1.007825032230
         H           -1.617435660392    -1.211409450888     0.889988062129     1.007825032230
         C           -1.170009577263     0.774163982874     0.000044803127    12.000000000000
         H           -1.617319943110     1.211616962893     0.890255779506     1.007825032230
         H           -1.617268658760     1.211804064272    -0.890099371191     1.007825032230
         C            0.356828087140     0.920209502894     0.000100311582    12.000000000000
         H            0.841344900886     1.891638887734     0.000208959863     1.007825032230
         O            0.760938793520     0.000191210170    -1.017879415043    15.994914619570
         C            0.356746924273    -0.919987016579    -0.000075768566    12.000000000000
         H            0.841178658805    -1.891458808534    -0.000150394652     1.007825032230
         O            0.760868034077    -0.000004144244     1.017931993354    15.994914619570

  Running in c1 symmetry.

  Rotational constants: A =      0.20025  B =      0.16408  C =      0.14756 [cm^-1]
  Rotational constants: A =   6003.46666  B =   4918.95043  C =   4423.75398 [MHz]
  Nuclear repulsion =  258.056195758512843

  Charge       = 0
  Multiplicity = 1
  Electrons    = 46
  Nalpha       = 23
  Nbeta        = 23

  ==> Algorithm <==

  SCF Algorithm Type is DF.
  DIIS enabled.
  MOM disabled.
  Fractional occupation disabled.
  Guess Type is SAD.
  Energy threshold   = 1.00e-10
  Density threshold  = 1.00e-10
  Integral threshold = 0.00e+00

  ==> Primary Basis <==

  Basis Set: PCSEG-0
    Blend: PCSEG-0
    Number of shells: 42
    Number of basis function: 66
    Number of Cartesian functions: 66
    Spherical Harmonics?: true
    Max angular momentum: 1

   => Loading Basis Set <=

    Name: (PCSEG-0 AUX)
    Role: JKFIT
    Keyword: DF_BASIS_SCF
    atoms 1, 4, 7, 10     entry C          line   198 file /opt/psi/4/master/share/psi4/basis/def2-universal-jkfit.gbs 
    atoms 2-3, 5-6, 8, 11 entry H          line    18 file /opt/psi/4/master/share/psi4/basis/def2-universal-jkfit.gbs 
    atoms 9, 12           entry O          line   318 file /opt/psi/4/master/share/psi4/basis/def2-universal-jkfit.gbs 

  ==> Integral Setup <==

  ==> DiskDFJK: Density-Fitted J/K Matrices <==

    J tasked:                  Yes
    K tasked:                  Yes
    wK tasked:                  No
    OpenMP threads:              4
    Integrals threads:           4
    Memory [MiB]:              375
    Algorithm:                Core
    Integral Cache:           NONE
    Schwarz Cutoff:          1E-12
    Fitting Condition:       1E-10

   => Auxiliary Basis Set <=

  Basis Set: (PCSEG-0 AUX)
    Blend: DEF2-UNIVERSAL-JKFIT
    Number of shells: 186
    Number of basis function: 562
    Number of Cartesian functions: 662
    Spherical Harmonics?: true
    Max angular momentum: 4

  Minimum eigenvalue in the overlap matrix is 1.2772328147E-03.
  Reciprocal condition number of the overlap matrix is 2.1027216444E-04.
    Using symmetric orthogonalization.

  ==> Pre-Iterations <==

  SCF Guess: Superposition of Atomic Densities via on-the-fly atomic UHF (no occupation information).

   -------------------------
    Irrep   Nso     Nmo    
   -------------------------
     A         66      66 
   -------------------------
    Total      66      66
   -------------------------

  ==> Iterations <==

                           Total Energy        Delta E     RMS |[F,P]|

   @DF-RHF iter SAD:  -303.78252271515021   -3.03783e+02   0.00000e+00 
   @DF-RHF iter   1:  -303.56525308617250    2.17270e-01   7.20826e-03 DIIS
   @DF-RHF iter   2:  -303.66412641485152   -9.88733e-02   3.86593e-03 DIIS
   @DF-RHF iter   3:  -303.68846402645704   -2.43376e-02   6.09795e-04 DIIS
   @DF-RHF iter   4:  -303.68960386071444   -1.13983e-03   1.89591e-04 DIIS
   @DF-RHF iter   5:  -303.68969221286596   -8.83522e-05   4.00995e-05 DIIS
   @DF-RHF iter   6:  -303.68969932690163   -7.11404e-06   8.08707e-06 DIIS
   @DF-RHF iter   7:  -303.68969969823422   -3.71333e-07   1.66757e-06 DIIS
   @DF-RHF iter   8:  -303.68969971128706   -1.30528e-08   5.22825e-07 DIIS
   @DF-RHF iter   9:  -303.68969971261640   -1.32934e-09   1.00038e-07 DIIS
   @DF-RHF iter  10:  -303.68969971267961   -6.32099e-11   1.69088e-08 DIIS
   @DF-RHF iter  11:  -303.68969971268109   -1.47793e-12   2.48438e-09 DIIS
   @DF-RHF iter  12:  -303.68969971268109    0.00000e+00   4.20137e-10 DIIS
   @DF-RHF iter  13:  -303.68969971268120   -1.13687e-13   1.27022e-10 DIIS
   @DF-RHF iter  14:  -303.68969971268132   -1.13687e-13   2.87496e-11 DIIS
  Energy and wave function converged.


  ==> Post-Iterations <==

    Orbital Energies [Eh]
    ---------------------

    Doubly Occupied:                                                      

       1A    -20.583850     2A    -20.583783     3A    -11.368394  
       4A    -11.368387     5A    -11.254754     6A    -11.254349  
       7A     -1.548718     8A     -1.317312     9A     -1.091103  
      10A     -1.011068    11A     -0.822334    12A     -0.787956  
      13A     -0.770565    14A     -0.684677    15A     -0.664468  
      16A     -0.661713    17A     -0.555080    18A     -0.534210  
      19A     -0.528189    20A     -0.525392    21A     -0.518452  
      22A     -0.467600    23A     -0.441337  

    Virtual:                                                              

      24A      0.203706    25A      0.232868    26A      0.236704  
      27A      0.242110    28A      0.254714    29A      0.267674  
      30A      0.316027    31A      0.352101    32A      0.354246  
      33A      0.388122    34A      0.408785    35A      0.474133  
      36A      0.575640    37A      0.796105    38A      0.799766  
      39A      0.821253    40A      0.924862    41A      0.934063  
      42A      0.944522    43A      0.951666    44A      1.004525  
      45A      1.005306    46A      1.033555    47A      1.061473  
      48A      1.071754    49A      1.136259    50A      1.149992  
      51A      1.171627    52A      1.172907    53A      1.210649  
      54A      1.239243    55A      1.421982    56A      1.454339  
      57A      1.484697    58A      1.525900    59A      1.692303  
      60A      1.710087    61A      1.929897    62A      1.952675  
      63A      2.144803    64A      2.303200    65A      2.379048  
      66A      2.449445  

    Final Occupation by Irrep:
              A 
    DOCC [    23 ]

  @DF-RHF Final Energy:  -303.68969971268132

   => Energetics <=

    Nuclear Repulsion Energy =            258.0561957585128425
    One-Electron Energy =                -924.8044066224313156
    Two-Electron Energy =                 363.0585111512372123
    Total Energy =                       -303.6896997126813176

Computation Completed

  //>>>>>>>>>>>>>>>>>>>>>>>>>>>>>>>>>>>//
  //                SCF                //
  //<<<<<<<<<<<<<<<<<<<<<<<<<<<<<<<<<<<//

   => Loading Basis Set <=

    Name: HEAVY-AUG-CC-PV(T+D)Z
    Role: ORBITAL
    Keyword: BASIS
    atoms 1, 4, 7, 10     entry C          line   273 file /opt/psi/4/master/share/psi4/basis/heavy-aug-cc-pv_tpd_z.gbs 
    atoms 2-3, 5-6, 8, 11 entry H          line    86 file /opt/psi/4/master/share/psi4/basis/heavy-aug-cc-pv_tpd_z.gbs 
    atoms 9, 12           entry O          line   365 file /opt/psi/4/master/share/psi4/basis/heavy-aug-cc-pv_tpd_z.gbs 


         ---------------------------------------------------------
                                   SCF
               by Justin Turney, Rob Parrish, Andy Simmonett
                          and Daniel G. A. Smith
                              RHF Reference
                        4 Threads,    500 MiB Core
         ---------------------------------------------------------

  ==> Geometry <==

    Molecular point group: c1
    Full point group: C1

    Geometry (in Angstrom), charge = 0, multiplicity = 1:

       Center              X                  Y                   Z               Mass       
    ------------   -----------------  -----------------  -----------------  -----------------
         C           -1.169969463277    -0.774717206180    -0.000125591694    12.000000000000
         H           -1.617363853360    -1.211222498784    -0.890367785468     1.007825032230
         H           -1.617435660392    -1.211409450888     0.889988062129     1.007825032230
         C           -1.170009577263     0.774163982874     0.000044803127    12.000000000000
         H           -1.617319943110     1.211616962893     0.890255779506     1.007825032230
         H           -1.617268658760     1.211804064272    -0.890099371191     1.007825032230
         C            0.356828087140     0.920209502894     0.000100311582    12.000000000000
         H            0.841344900886     1.891638887734     0.000208959863     1.007825032230
         O            0.760938793520     0.000191210170    -1.017879415043    15.994914619570
         C            0.356746924273    -0.919987016579    -0.000075768566    12.000000000000
         H            0.841178658805    -1.891458808534    -0.000150394652     1.007825032230
         O            0.760868034077    -0.000004144244     1.017931993354    15.994914619570

  Running in c1 symmetry.

  Rotational constants: A =      0.20025  B =      0.16408  C =      0.14756 [cm^-1]
  Rotational constants: A =   6003.46666  B =   4918.95043  C =   4423.75398 [MHz]
  Nuclear repulsion =  258.056195758512843

  Charge       = 0
  Multiplicity = 1
  Electrons    = 46
  Nalpha       = 23
  Nbeta        = 23

  ==> Algorithm <==

  SCF Algorithm Type is DF.
  DIIS enabled.
  MOM disabled.
  Fractional occupation disabled.
  Guess Type is SAD.
  Energy threshold   = 1.00e-10
  Density threshold  = 1.00e-10
  Integral threshold = 0.00e+00

  ==> Primary Basis <==

  Basis Set: HEAVY-AUG-CC-PV(T+D)Z
    Blend: HEAVY-AUG-CC-PV(T+D)Z
    Number of shells: 120
    Number of basis function: 360
    Number of Cartesian functions: 420
    Spherical Harmonics?: true
    Max angular momentum: 3

   => Loading Basis Set <=

    Name: (HEAVY-AUG-CC-PV(T+D)Z AUX)
    Role: JKFIT
    Keyword: DF_BASIS_SCF
    atoms 1, 4, 7, 10     entry C          line   200 file /opt/psi/4/master/share/psi4/basis/heavy-aug-cc-pvtz-jkfit.gbs 
    atoms 2-3, 5-6, 8, 11 entry H          line   116 file /opt/psi/4/master/share/psi4/basis/heavy-aug-cc-pvtz-jkfit.gbs 
    atoms 9, 12           entry O          line   324 file /opt/psi/4/master/share/psi4/basis/heavy-aug-cc-pvtz-jkfit.gbs 


  Computing basis projection from PCSEG-0 to HEAVY-AUG-CC-PV(T+D)Z

  ==> Integral Setup <==

  ==> DiskDFJK: Density-Fitted J/K Matrices <==

    J tasked:                  Yes
    K tasked:                  Yes
    wK tasked:                  No
    OpenMP threads:              4
    Integrals threads:           4
    Memory [MiB]:              375
    Algorithm:                Disk
    Integral Cache:           NONE
    Schwarz Cutoff:          1E-12
    Fitting Condition:       1E-10

   => Auxiliary Basis Set <=

  Basis Set: (HEAVY-AUG-CC-PV(T+D)Z AUX)
    Blend: HEAVY-AUG-CC-PVTZ-JKFIT
    Number of shells: 240
    Number of basis function: 804
    Number of Cartesian functions: 996
    Spherical Harmonics?: true
    Max angular momentum: 4

  Minimum eigenvalue in the overlap matrix is 5.4720960967E-06.
  Reciprocal condition number of the overlap matrix is 3.9933635297E-07.
    Using symmetric orthogonalization.

  ==> Pre-Iterations <==

  SCF Guess: Orbitals guess was supplied from a previous computation.

   -------------------------
    Irrep   Nso     Nmo    
   -------------------------
     A        360     360 
   -------------------------
    Total     360     360
   -------------------------

  ==> Iterations <==

                           Total Energy        Delta E     RMS |[F,P]|

   @DF-RHF iter   0:  -304.36017481971595   -3.04360e+02   4.19478e-03 
   @DF-RHF iter   1:  -304.71758165049437   -3.57407e-01   5.78073e-04 DIIS
   @DF-RHF iter   2:  -304.73287027348908   -1.52886e-02   2.73835e-04 DIIS
   @DF-RHF iter   3:  -304.73660039825239   -3.73012e-03   4.82280e-05 DIIS
   @DF-RHF iter   4:  -304.73686060342322   -2.60205e-04   1.47394e-05 DIIS
   @DF-RHF iter   5:  -304.73688031352862   -1.97101e-05   6.03158e-06 DIIS
   @DF-RHF iter   6:  -304.73688374977360   -3.43624e-06   1.40509e-06 DIIS
   @DF-RHF iter   7:  -304.73688399494995   -2.45176e-07   3.05089e-07 DIIS
   @DF-RHF iter   8:  -304.73688400798846   -1.30385e-08   8.03977e-08 DIIS
   @DF-RHF iter   9:  -304.73688400889171   -9.03242e-10   2.56515e-08 DIIS
   @DF-RHF iter  10:  -304.73688400897703   -8.53220e-11   6.19716e-09 DIIS
   @DF-RHF iter  11:  -304.73688400898243   -5.40012e-12   1.58481e-09 DIIS
   @DF-RHF iter  12:  -304.73688400898317   -7.38964e-13   4.52266e-10 DIIS
   @DF-RHF iter  13:  -304.73688400898294    2.27374e-13   7.19981e-11 DIIS
  Energy and wave function converged.


  ==> Post-Iterations <==

    Orbital Energies [Eh]
    ---------------------

    Doubly Occupied:                                                      

       1A    -20.567256     2A    -20.567218     3A    -11.347995  
       4A    -11.347971     5A    -11.236234     6A    -11.235664  
       7A     -1.501507     8A     -1.296807     9A     -1.066775  
      10A     -0.990158    11A     -0.810627    12A     -0.787637  
      13A     -0.748990    14A     -0.676396    15A     -0.657304  
      16A     -0.645275    17A     -0.537575    18A     -0.525218  
      19A     -0.519011    20A     -0.511721    21A     -0.508680  
      22A     -0.459980    23A     -0.431341  

    Virtual:                                                              

      24A      0.050447    25A      0.051298    26A      0.059468  
      27A      0.072113    28A      0.073468    29A      0.092418  
      30A      0.093436    31A      0.096771    32A      0.116633  
      33A      0.126403    34A      0.127460    35A      0.130113  
      36A      0.162143    37A      0.176370    38A      0.195504  
      39A      0.204220    40A      0.206624    41A      0.214157  
      42A      0.220951    43A      0.228166    44A      0.233690  
      45A      0.249494    46A      0.268186    47A      0.268966  
      48A      0.276987    49A      0.295976    50A      0.302138  
      51A      0.315545    52A      0.332133    53A      0.336058  
      54A      0.342725    55A      0.348410    56A      0.357026  
      57A      0.357155    58A      0.362712    59A      0.376031  
      60A      0.398598    61A      0.404048    62A      0.412782  
      63A      0.421473    64A      0.433698    65A      0.447079  
      66A      0.459429    67A      0.469163    68A      0.486476  
      69A      0.493148    70A      0.508572    71A      0.512542  
      72A      0.516730    73A      0.520775    74A      0.527621  
      75A      0.529254    76A      0.543518    77A      0.546040  
      78A      0.580567    79A      0.595838    80A      0.608279  
      81A      0.612098    82A      0.624823    83A      0.654862  
      84A      0.657296    85A      0.672078    86A      0.722631  
      87A      0.737442    88A      0.748435    89A      0.754152  
      90A      0.771688    91A      0.781524    92A      0.793702  
      93A      0.798273    94A      0.817421    95A      0.819945  
      96A      0.830215    97A      0.843433    98A      0.878390  
      99A      0.892065   100A      0.930740   101A      0.930859  
     102A      0.940180   103A      0.946330   104A      0.969949  
     105A      0.988443   106A      1.000165   107A      1.031665  
     108A      1.037727   109A      1.039102   110A      1.061902  
     111A      1.080491   112A      1.096394   113A      1.115842  
     114A      1.123200   115A      1.139005   116A      1.161612  
     117A      1.189205   118A      1.225303   119A      1.249046  
     120A      1.252430   121A      1.262788   122A      1.283190  
     123A      1.322996   124A      1.330797   125A      1.339060  
     126A      1.353407   127A      1.375109   128A      1.382743  
     129A      1.398434   130A      1.404159   131A      1.412763  
     132A      1.448271   133A      1.448452   134A      1.460356  
     135A      1.482055   136A      1.497952   137A      1.506624  
     138A      1.527438   139A      1.547023   140A      1.559675  
     141A      1.583282   142A      1.586136   143A      1.588937  
     144A      1.589963   145A      1.601685   146A      1.656025  
     147A      1.660707   148A      1.670523   149A      1.676440  
     150A      1.684935   151A      1.700096   152A      1.707989  
     153A      1.715720   154A      1.732003   155A      1.736634  
     156A      1.750120   157A      1.752816   158A      1.791773  
     159A      1.802620   160A      1.808559   161A      1.824153  
     162A      1.903620   163A      1.905575   164A      1.931443  
     165A      1.945207   166A      1.948862   167A      1.985292  
     168A      1.993737   169A      2.003797   170A      2.007280  
     171A      2.028159   172A      2.051026   173A      2.055076  
     174A      2.060779   175A      2.150769   176A      2.153499  
     177A      2.214101   178A      2.251912   179A      2.301697  
     180A      2.334552   181A      2.393299   182A      2.402927  
     183A      2.424069   184A      2.441591   185A      2.452743  
     186A      2.480665   187A      2.508121   188A      2.511710  
     189A      2.544965   190A      2.581814   191A      2.631995  
     192A      2.646707   193A      2.682425   194A      2.693441  
     195A      2.725231   196A      2.771007   197A      2.799469  
     198A      2.882133   199A      2.882967   200A      2.895271  
     201A      2.914482   202A      2.920915   203A      2.958397  
     204A      2.966121   205A      2.969526   206A      3.081635  
     207A      3.099731   208A      3.119414   209A      3.131847  
     210A      3.185324   211A      3.188481   212A      3.212077  
     213A      3.227336   214A      3.243531   215A      3.267053  
     216A      3.311903   217A      3.339195   218A      3.412707  
     219A      3.416228   220A      3.417978   221A      3.440128  
     222A      3.442774   223A      3.480410   224A      3.486542  
     225A      3.504049   226A      3.524152   227A      3.539308  
     228A      3.607537   229A      3.629352   230A      3.639655  
     231A      3.671131   232A      3.685758   233A      3.700553  
     234A      3.710642   235A      3.729848   236A      3.735900  
     237A      3.751748   238A      3.820818   239A      3.837138  
     240A      3.844484   241A      3.867427   242A      3.885423  
     243A      3.933387   244A      3.949923   245A      3.966152  
     246A      3.966415   247A      3.969699   248A      4.005124  
     249A      4.025339   250A      4.049976   251A      4.056061  
     252A      4.080283   253A      4.107679   254A      4.114327  
     255A      4.148616   256A      4.167916   257A      4.176293  
     258A      4.185352   259A      4.191720   260A      4.214613  
     261A      4.244569   262A      4.253091   263A      4.260329  
     264A      4.268373   265A      4.273991   266A      4.318121  
     267A      4.345677   268A      4.366859   269A      4.429733  
     270A      4.467039   271A      4.484757   272A      4.486239  
     273A      4.499551   274A      4.516026   275A      4.532089  
     276A      4.554931   277A      4.584622   278A      4.639242  
     279A      4.691038   280A      4.693831   281A      4.703590  
     282A      4.708694   283A      4.735195   284A      4.745056  
     285A      4.758519   286A      4.808763   287A      4.820845  
     288A      4.821618   289A      4.840674   290A      4.888785  
     291A      4.908106   292A      4.959407   293A      4.966055  
     294A      4.968367   295A      5.097311   296A      5.120007  
     297A      5.125394   298A      5.193674   299A      5.199822  
     300A      5.241047   301A      5.273646   302A      5.289800  
     303A      5.398028   304A      5.424811   305A      5.437069  
     306A      5.466684   307A      5.476636   308A      5.583577  
     309A      5.584395   310A      5.606729   311A      5.655455  
     312A      5.704599   313A      5.710763   314A      5.730567  
     315A      5.861334   316A      5.867514   317A      5.900199  
     318A      5.937735   319A      6.060946   320A      6.130224  
     321A      6.153193   322A      6.207428   323A      6.261820  
     324A      6.289157   325A      6.301707   326A      6.361141  
     327A      6.384908   328A      6.498129   329A      6.563258  
     330A      6.901474   331A      6.906052   332A      6.955196  
     333A      6.970957   334A      6.997734   335A      7.032931  
     336A      7.111236   337A      7.141305   338A      7.179649  
     339A      7.206900   340A      7.245595   341A      7.254690  
     342A      7.404414   343A      7.507606   344A      7.599724  
     345A      7.615151   346A      7.659967   347A      7.755719  
     348A      7.811150   349A      7.825063   350A      7.924580  
     351A      8.059714   352A      8.210651   353A      8.213666  
     354A      8.233749   355A     14.278162   356A     15.463446  
     357A     15.712956   358A     15.956163   359A     17.525774  
     360A     18.820506  

    Final Occupation by Irrep:
              A 
    DOCC [    23 ]

  @DF-RHF Final Energy:  -304.73688400898294

   => Energetics <=

    Nuclear Repulsion Energy =            258.0561957585128425
    One-Electron Energy =                -927.6314821506814496
    Two-Electron Energy =                 364.8384023831857235
    Total Energy =                       -304.7368840089829405

Computation Completed


Properties will be evaluated at   0.000000,   0.000000,   0.000000 [a0]

Properties computed using the SCF density matrix

  Nuclear Dipole Moment: [e a0]
     X:    -4.4802      Y:     0.0009      Z:    -0.0002

  Electronic Dipole Moment: [e a0]
     X:     3.7438      Y:    -0.0009      Z:     0.0001

  Dipole Moment: [e a0]
     X:    -0.7365      Y:    -0.0000      Z:    -0.0000     Total:     0.7365

  Dipole Moment: [D]
     X:    -1.8719      Y:    -0.0000      Z:    -0.0001     Total:     1.8719


*** tstop() called on n048 at Fri Jun  5 11:37:00 2020
Module time:
	user time   =      33.74 seconds =       0.56 minutes
	system time =       1.68 seconds =       0.03 minutes
	total time  =         10 seconds =       0.17 minutes
Total time:
	user time   =     197.54 seconds =       3.29 minutes
	system time =       8.67 seconds =       0.14 minutes
	total time  =         55 seconds =       0.92 minutes

*** tstart() called on n048
*** at Fri Jun  5 11:37:00 2020


  //>>>>>>>>>>>>>>>>>>>>>>>>>>>>>>>>>>>//
  //               DFMP2               //
  //<<<<<<<<<<<<<<<<<<<<<<<<<<<<<<<<<<<//

   => Loading Basis Set <=

    Name: (HEAVY-AUG-CC-PV(T+D)Z AUX)
    Role: RIFIT
    Keyword: DF_BASIS_MP2
    atoms 1, 4, 7, 10     entry C          line   148 file /opt/psi/4/master/share/psi4/basis/heavy-aug-cc-pvtz-ri.gbs 
    atoms 2-3, 5-6, 8, 11 entry H          line    44 file /opt/psi/4/master/share/psi4/basis/heavy-aug-cc-pvtz-ri.gbs 
    atoms 9, 12           entry O          line   264 file /opt/psi/4/master/share/psi4/basis/heavy-aug-cc-pvtz-ri.gbs 

	 --------------------------------------------------------
	                          DF-MP2                         
	      2nd-Order Density-Fitted Moller-Plesset Theory     
	              RMP2 Wavefunction,   4 Threads             
	                                                         
	        Rob Parrish, Justin Turney, Andy Simmonett,      
	           Ed Hohenstein, and C. David Sherrill          
	 --------------------------------------------------------

   => Auxiliary Basis Set <=

  Basis Set: (HEAVY-AUG-CC-PV(T+D)Z AUX)
    Blend: HEAVY-AUG-CC-PVTZ-RI
    Number of shells: 228
    Number of basis function: 816
    Number of Cartesian functions: 1026
    Spherical Harmonics?: true
    Max angular momentum: 4

	 --------------------------------------------------------
	                 NBF =   360, NAUX =   816
	 --------------------------------------------------------
	   CLASS    FOCC     OCC    AOCC    AVIR     VIR    FVIR
	   PAIRS       6      23      17     337     337       0
	 --------------------------------------------------------

	-----------------------------------------------------------
	 ==================> DF-MP2 Energies <==================== 
	-----------------------------------------------------------
	 Reference Energy          =    -304.7368840089829405 [Eh]
	 Singles Energy            =      -0.0000000000000000 [Eh]
	 Same-Spin Energy          =      -0.2850889494849234 [Eh]
	 Opposite-Spin Energy      =      -0.8617642031062795 [Eh]
	 Correlation Energy        =      -1.1468531525912029 [Eh]
	 Total Energy              =    -305.8837371615741176 [Eh]
	-----------------------------------------------------------
	 ================> DF-SCS-MP2 Energies <================== 
	-----------------------------------------------------------
	 SCS Same-Spin Scale       =       0.3333333333333333 [-]
	 SCS Opposite-Spin Scale   =       1.2000000000000000 [-]
	 SCS Same-Spin Energy      =      -0.0950296498283078 [Eh]
	 SCS Opposite-Spin Energy  =      -1.0341170437275353 [Eh]
	 SCS Correlation Energy    =      -1.1291466935558432 [Eh]
	 SCS Total Energy          =    -305.8660307025388079 [Eh]
	-----------------------------------------------------------


*** tstop() called on n048 at Fri Jun  5 11:37:02 2020
Module time:
	user time   =       6.83 seconds =       0.11 minutes
	system time =       0.11 seconds =       0.00 minutes
	total time  =          2 seconds =       0.03 minutes
Total time:
	user time   =     204.37 seconds =       3.41 minutes
	system time =       8.78 seconds =       0.15 minutes
	total time  =         57 seconds =       0.95 minutes

========================OPTAVC-XTPL==========================

MP2/TZ correlation energy -1.146853152591203

=============================================================

    Psi4 stopped on: Friday, 05 June 2020 11:37AM
    Psi4 wall time for execution: 0:00:56.93

*** Psi4 exiting successfully. Buy a developer a beer!
