
 Primary working directories    : /tmp/320938.538.gen6.q
 Secondary working directories  : /tmp/320938.538.gen6.q
 Wavefunction directory         : /home/vulcan/mel64643/wfu/
 Main file repository           : /tmp/320938.538.gen6.q/

 ARCHNAME  : Linux/x86_64
 FC        : /opt/intel/compilers_and_libraries_2016.1.150/linux/bin/intel64/ifort
 FCVERSION : 16.0.1
 BLASLIB   : -mkl
 id        : ccgc

 Nodes     nprocs
 n080         3
 Number of processes for MPI-2 version of Molpro:   nprocs(total)=    4   nprocs(compute)=    3   nprocs(helper)=    1
 ga_uses_ma=false, calling ma_init with nominal heap.
 GA-space will be limited to   8.0 MW (determined by -G option)

 Using customized tuning parameters: mindgm=10; mindgv=16; mindgc=4; mindgr=1; noblas=0; mincuda=1000; minvec=7
 default implementation of scratch files=sf  

 ***,Frequencies for min3
 memory,1000,m
 gthresh,energy=1.0d-10,orbital=1.0d-10,oneint=1.0d-16,twoint=1.0d-16,optgrad=1.0d-6,compress=1.0d-13
 geomtyp=xyz
 
  geometry = {
  12
  arbitrary comment
     C    1.776964391707    0.711398808326   -0.047331391796
     C    0.491811976407   -0.059992870174   -0.196493901896
     C    0.450332819107   -1.536294019674    0.101417522804
     O   -0.560767745493    0.727234937526    0.254453964104
     O   -1.837840335593    0.092269037726   -0.120531795196
     H    2.585373063107    0.211465914126   -0.611440883996
     H    1.660426393907    1.742887987326   -0.426532369096
     H    2.095123485707    0.776023824170    1.017767795507
     H   -0.505151424472   -1.983117910441   -0.220181771517
     H    1.281578066797   -2.048238723148   -0.417353607889
     H    0.561681011770   -1.720116143970    1.194625830816
     H   -1.987346988367    0.551183056619   -0.966702068095
  }
 
 basis=cc-pvdz
 {rhf;maxit,200}
 {uccsd(t);maxit,200}

 Variables initialized (661), CPU time= 0.01 sec
 Commands  initialized (458), CPU time= 0.01 sec, 486 directives.
 Default parameters read. Elapsed time= 0.06 sec

 Checking input...
 Passed
1


                                         ***  PROGRAM SYSTEM MOLPRO  ***
                         Copyright, University College Cardiff Consultants Limited, 2008

                                    Version 2010.1 linked May 16 2016 07:17:05


 **********************************************************************************************************************************
 LABEL *   Frequencies for min3                                                          
 Linux-4.4.3/n080(x86_64) 64 bit mpp version                                             DATE: 07-Mar-20          TIME: 04:08:19  
 **********************************************************************************************************************************

 SHA1:             9e8077add272b0f3cad6f7df79ec5211205f459d
 **********************************************************************************************************************************

 THRESHOLDS:

 ZERO    =  1.00D-12  ONEINT  =  1.00D-16  TWOINT  =  1.00D-16  PREFAC  =  1.00D-14  LOCALI  =  1.00D-09  EORDER  =  1.00D-04
 ENERGY  =  1.00D-10  ETEST   =  0.00D+00  EDENS   =  0.00D+00  THRDEDEF=  1.00D-06  GRADIENT=  1.00D-02  STEP    =  1.00D-03
 ORBITAL =  1.00D-10  CIVEC   =  1.00D-05  COEFF   =  1.00D-04  PRINTCI =  5.00D-02  PUNCHCI =  9.90D+01  OPTGRAD =  1.00D-06
 OPTENERG=  1.00D-06  OPTSTEP =  3.00D-04  THRGRAD =  1.00D-10  COMPRESS=  1.00D-13  VARMIN  =  1.00D-07  VARMAX  =  1.00D-03
 THRDOUB =  0.00D+00  THRDIV  =  1.00D-05  THRRED  =  1.00D-07  THRPSP  =  1.00D+00  THRDC   =  1.00D-10  THRCS   =  1.00D-10
 THRNRM  =  1.00D-08  THREQ   =  0.00D+00  THRDE   =  1.00D+00  THRREF  =  1.00D-05  SPARFAC =  1.00D+00  THRDLP  =  1.00D-07
 THRDIA  =  1.00D-10  THRDLS  =  1.00D-07  THRGPS  =  0.00D+00  THRKEX  =  0.00D+00  THRDIS  =  2.00D-01  THRVAR  =  1.00D-10
 THRLOC  =  1.00D-06  THRGAP  =  1.00D-06  THRLOCT = -1.00D+00  THRGAPT = -1.00D+00  THRORB  =  1.00D-06  THRMLTP =  0.00D+00
 THRCPQCI=  1.00D-10  KEXTA   =  0.00D+00  THRCOARS=  0.00D+00  SYMTOL  =  1.00D-06  GRADTOL =  1.00D-06  THROVL  =  1.00D-08
 THRORTH =  1.00D-08  GRID    =  1.00D-06  GRIDMAX =  1.00D-03  DTMAX   =  0.00D+00

 SETTING GEOMTYP        =    XYZ

 Variable memory set to 1000000000 words,  buffer space   230000 words

 SETTING BASIS          =    CC-PVDZ


 Recomputing integrals since basis changed


 Using spherical harmonics

 Library entry C      S cc-pVDZ              selected for orbital group  1
 Library entry C      P cc-pVDZ              selected for orbital group  1
 Library entry C      D cc-pVDZ              selected for orbital group  1
 Library entry O      S cc-pVDZ              selected for orbital group  2
 Library entry O      P cc-pVDZ              selected for orbital group  2
 Library entry O      D cc-pVDZ              selected for orbital group  2
 Library entry H      S cc-pVDZ              selected for orbital group  3
 Library entry H      P cc-pVDZ              selected for orbital group  3

1PROGRAM * SEWARD (Integral evaluation for generally contracted gaussian basis sets)     Author: Roland Lindh, 1990

 Geometry written to block  1 of record 700


 Point group  C1  



 ATOMIC COORDINATES

 NR  ATOM    CHARGE       X              Y              Z

   1  C       6.00    3.357976046    1.344348918   -0.089443368
   2  C       6.00    0.929389944   -0.113370094   -0.371319661
   3  C       6.00    0.851005696   -2.903174955    0.191651343
   4  O       8.00   -1.059697462    1.374274865    0.480848305
   5  O       8.00   -3.473014908    0.174363212   -0.227772083
   6  H       1.00    4.885647037    0.399612664   -1.155455816
   7  H       1.00    3.137751146    3.293580974   -0.806029364
   8  H       1.00    3.959209599    1.466472499    1.923302399
   9  H       1.00   -0.954597847   -3.747549737   -0.416083247
  10  H       1.00    2.421831562   -3.870610239   -0.788684019
  11  H       1.00    1.061423285   -3.250548426    2.257515650
  12  H       1.00   -3.755541536    1.041585025   -1.826802159

 Bond lengths in Bohr (Angstrom)

 1-2  2.846476668  1-6  2.088704811  1-7  2.088420481  1-8  2.104172397  2-3  2.847119878
     ( 1.506290578)     ( 1.105294982)     ( 1.105144521)     ( 1.113480076)     ( 1.506630951)

  2- 4  2.625975338   3- 9  2.083870020   3-10  2.089134355   3-11  2.105407140   4- 5  2.786760112
       ( 1.389606300)       ( 1.102736521)       ( 1.105522287)       ( 1.114133474)       ( 1.474689938)

  5-12  1.840867229
       ( 0.974144982)

 Bond angles

  1-2-3  120.37866573   1-2-4  108.90555081   2-1-6  109.98947225   2-1-7  110.73429490

  2- 1- 8  111.60659369   2- 3- 9  111.29849874   2- 3-10  109.89328261   2- 3-11  110.66712000

  2- 4- 5  109.23946113   3- 2- 4  118.03986083   4- 5-12   98.68153634   6- 1- 7  108.91518355

  6- 1- 8  107.78590075   7- 1- 8  107.70852594   9- 3-10  109.08731308   9- 3-11  107.81246184

 10- 3-11  107.99239191

 NUCLEAR CHARGE:                   41
 NUMBER OF PRIMITIVE AOS:         184
 NUMBER OF SYMMETRY AOS:          179
 NUMBER OF CONTRACTIONS:          105   ( 105A   )
 NUMBER OF CORE ORBITALS:           5   (   5A   )
 NUMBER OF VALENCE ORBITALS:       27   (  27A   )


 NUCLEAR REPULSION ENERGY  183.21801327


 Eigenvalues of metric

         1 0.345E-02 0.435E-02 0.105E-01 0.141E-01 0.182E-01 0.214E-01 0.331E-01 0.345E-01


 Contracted 2-electron integrals neglected if value below      1.0D-16
 AO integral compression algorithm  1   Integral accuracy      1.0D-16

     127.402 MB (compressed) written to integral file ( 93.4%)

     Node minimum: 40.632 MB, node maximum: 43.778 MB


 NUMBER OF SORTED TWO-ELECTRON INTEGRALS:    5164320.     BUFFER LENGTH:  32768
 NUMBER OF SEGMENTS:   1  SEGMENT LENGTH:    5164320      RECORD LENGTH: 524288

 Memory used in sort:       5.72 MW

 SORT1 READ    17075332. AND WROTE     5135905. INTEGRALS IN     15 RECORDS. CPU TIME:     0.19 SEC, REAL TIME:     0.23 SEC
 SORT2 READ    15396629. AND WROTE    15487395. INTEGRALS IN    501 RECORDS. CPU TIME:     0.05 SEC, REAL TIME:     0.09 SEC

 Node minimum:     5160610.  Node maximum:     5164320. integrals

 OPERATOR DM      FOR CENTER  0  COORDINATES:    0.000000    0.000000    0.000000


 **********************************************************************************************************************************
 DATASETS  * FILE   NREC   LENGTH (MB)   RECORD NAMES
              1      18        3.17       500      610      700      900      950      970     1000      129      960     1100   
                                          VAR    BASINP    GEOM    SYMINP    ZMAT    AOBASIS   BASIS     P2S    ABASIS      S 
                                         1400     1410     1200     1210     1080     1600     1650     1700   
                                           T        V       H0       H01     AOSYM     SMH    MOLCAS    OPER   

 PROGRAMS   *        TOTAL       INT
 CPU TIMES  *         0.82      0.74
 REAL TIME  *         1.22 SEC
 DISK USED  *       305.70 MB      
 GA USED    *         0.00 MB       (max)       0.00 MB       (current)
 **********************************************************************************************************************************

1PROGRAM * RHF-SCF (OPEN SHELL)       Authors: W. Meyer, H.-J. Werner


 NUMBER OF ELECTRONS:      21+   20-    SPACE SYMMETRY=1    SPIN SYMMETRY: Doublet 
 CONVERGENCE THRESHOLDS:    1.00E-10 (Density)    1.00E-11 (Energy)
 MAX. NUMBER OF ITERATIONS:      200
 INTERPOLATION TYPE:            DIIS
 INTERPOLATION STEPS:              2 (START)      1 (STEP)
 LEVEL SHIFTS:                 -0.30 (CLOSED)  0.00 (OPEN) 



 Orbital guess generated from atomic densities. Full valence occupancy:   32

 Molecular orbital dump at record        2100.2

 ITERATION    DDIFF          GRAD             ENERGY        2-EL.EN.            DIPOLE MOMENTS         DIIS
    1      0.000D+00      0.000D+00      -267.17823485    555.807553    0.57035    0.04976   -0.74914    0
    2      0.000D+00      0.617D-02      -267.24891183    555.730194    0.41432   -0.13098   -0.59847    1
    3      0.927D-02      0.214D-02      -267.26108827    555.647825    0.39398   -0.05898   -0.62580    2
    4      0.336D-02      0.912D-03      -267.26469735    555.800137    0.37934   -0.09913   -0.64221    3
    5      0.186D-02      0.364D-03      -267.26526662    555.771492    0.38186   -0.09262   -0.63517    4
    6      0.792D-03      0.110D-03      -267.26534305    555.757727    0.38011   -0.09242   -0.63790    5
    7      0.277D-03      0.511D-04      -267.26536319    555.754713    0.37939   -0.09216   -0.63739    6
    8      0.144D-03      0.273D-04      -267.26536925    555.752765    0.37966   -0.09227   -0.63760    7
    9      0.924D-04      0.115D-04      -267.26537017    555.753079    0.37984   -0.09223   -0.63736    8
   10      0.366D-04      0.501D-05      -267.26537033    555.753690    0.38010   -0.09224   -0.63743    9
   11      0.147D-04      0.196D-05      -267.26537035    555.753532    0.38015   -0.09224   -0.63743    9
   12      0.651D-05      0.670D-06      -267.26537036    555.753667    0.38017   -0.09224   -0.63743    9
   13      0.227D-05      0.226D-06      -267.26537036    555.753582    0.38017   -0.09224   -0.63742    9
   14      0.632D-06      0.758D-07      -267.26537036    555.753591    0.38017   -0.09224   -0.63743    9
   15      0.193D-06      0.301D-07      -267.26537036    555.753587    0.38018   -0.09224   -0.63742    9
   16      0.826D-07      0.145D-07      -267.26537036    555.753589    0.38018   -0.09224   -0.63742    9
   17      0.375D-07      0.753D-08      -267.26537036    555.753589    0.38018   -0.09224   -0.63742    9
   18      0.223D-07      0.342D-08      -267.26537036    555.753589    0.38018   -0.09224   -0.63742    9
   19      0.114D-07      0.133D-08      -267.26537036    555.753589    0.38018   -0.09224   -0.63742    9
   20      0.444D-08      0.568D-09      -267.26537036    555.753589    0.38018   -0.09224   -0.63742    9
   21      0.166D-08      0.287D-09      -267.26537036    555.753589    0.38018   -0.09224   -0.63742    9
   22      0.756D-09      0.162D-09      -267.26537036    555.753589    0.38018   -0.09224   -0.63742    9
   23      0.447D-09      0.797D-10      -267.26537036    555.753589    0.38018   -0.09224   -0.63742    9
   24      0.264D-09      0.317D-10      -267.26537036    555.753589    0.38018   -0.09224   -0.63742    9
   25      0.934D-10      0.129D-10      -267.26537036    555.753589    0.38018   -0.09224   -0.63742    0

 Final alpha occupancy:  21
 Final beta  occupancy:  20

 !RHF STATE 1.1 Energy               -267.265370357025
 Nuclear energy                       183.21801327
 One-electron energy                 -728.36017801
 Two-electron energy                  277.87679438
 Virial quotient                       -1.00155894
 !RHF STATE 1.1 Dipole moment           0.38017635    -0.09224066    -0.63742481
 Dipole moment /Debye                   0.96624861    -0.23443701    -1.62006615

 Orbital energies:

         1.1          2.1          3.1          4.1          5.1          6.1          7.1          8.1          9.1         10.1
    -20.630492   -20.628829   -11.279327   -11.237905   -11.232270    -1.470234    -1.240779    -1.023167    -0.945302    -0.768479

        11.1         12.1         13.1         14.1         15.1         16.1         17.1         18.1         19.1         20.1
     -0.704671    -0.643035    -0.626800    -0.588727    -0.545068    -0.543319    -0.539018    -0.516823    -0.493032    -0.469838

        21.1         22.1         23.1
     -0.352362     0.181292     0.183571


 **********************************************************************************************************************************
 DATASETS  * FILE   NREC   LENGTH (MB)   RECORD NAMES
              1      18        3.17       500      610      700      900      950      970     1000      129      960     1100   
                                          VAR    BASINP    GEOM    SYMINP    ZMAT    AOBASIS   BASIS     P2S    ABASIS      S 
                                         1400     1410     1200     1210     1080     1600     1650     1700   
                                           T        V       H0       H01     AOSYM     SMH    MOLCAS    OPER   

              2       3        0.77       700     1000     2100   
                                         GEOM     BASIS     RHF  

 PROGRAMS   *        TOTAL       RHF       INT
 CPU TIMES  *         1.71      0.89      0.74
 REAL TIME  *         2.23 SEC
 DISK USED  *       322.27 MB      
 SF USED    *         0.04 MB      
 GA USED    *         0.00 MB       (max)       0.00 MB       (current)
 **********************************************************************************************************************************


1PROGRAM * CCSD (Unrestricted open-shell coupled cluster)     Authors: C. Hampel, H.-J. Werner, 1991, M. Deegan, P.J. Knowles, 1992


 Convergence thresholds:  THRVAR = 1.00D-08  THRDEN = 1.00D-10

 CCSD(T)     terms to be evaluated (factor= 1.000)


 Number of core orbitals:           5 (   5 )
 Number of closed-shell orbitals:  15 (  15 )
 Number of active  orbitals:        1 (   1 )
 Number of external orbitals:      84 (  84 )

 Memory could be reduced to 24.91 Mwords without degradation in triples

 Number of N-1 electron functions:              31
 Number of N-2 electron functions:             465
 Number of singly external CSFs:              2635
 Number of doubly external CSFs:           2537250
 Total number of CSFs:                     2539885

 Molecular orbitals read from record     2100.2  Type=RHF/CANONICAL (state 1.1)

 Integral transformation finished. Total CPU:   0.69 sec, npass=  1  Memory used:  12.63 MW

 Starting RMP2 calculation

 ITER.      SQ.NORM     CORR.ENERGY   TOTAL ENERGY   ENERGY CHANGE        DEN1      VAR(S)    VAR(P)  DIIS     TIME
   1      1.24304760    -0.78639247  -268.05176283    -0.78639247    -0.00305028  0.20D-04  0.11D-02  1  1     0.94
   2      1.24568965    -0.78968201  -268.05505237    -0.00328954    -0.00000475  0.54D-06  0.19D-05  2  2     1.18
   3      1.24575523    -0.78972409  -268.05509445    -0.00004208    -0.00000003  0.16D-07  0.68D-08  3  3     1.44
   4      1.24575618    -0.78972409  -268.05509445    -0.00000000    -0.00000000  0.27D-09  0.38D-10  4  4     1.72
   5      1.24575626    -0.78972412  -268.05509448    -0.00000003    -0.00000000  0.25D-11  0.65D-12  5  5     2.02
   6      1.24575628    -0.78972413  -268.05509449    -0.00000001    -0.00000000  0.28D-13  0.87D-14  6  6     2.35
   7      1.24575628    -0.78972413  -268.05509449     0.00000000    -0.00000000  0.47D-15  0.12D-15  6  1     2.67
   8      1.24575628    -0.78972413  -268.05509449     0.00000000    -0.00000000  0.59D-17  0.13D-17  6  2     2.99

 Norm of t1 vector:      0.03893172      S-energy:    -0.00227146      T1 diagnostic:  0.00055043
 Norm of t2 vector:      0.49420704      P-energy:    -0.78745267
                                         Alpha-Beta:  -0.59343053
                                         Alpha-Alpha: -0.10094134
                                         Beta-Beta:   -0.09308081

 Spin contamination <S**2-Sz**2-Sz>     0.00104024
  Reference energy                   -267.265370357024
  RHF-RMP2 correlation energy          -0.789724130170
 !RHF-RMP2 energy                    -268.055094487194

 Starting UCCSD calculation

 ITER.      SQ.NORM     CORR.ENERGY   TOTAL ENERGY   ENERGY CHANGE        DEN1      VAR(S)    VAR(P)  DIIS     TIME
   1      1.26282380    -0.80906227  -268.07443263    -0.80906227    -0.02515907  0.38D-02  0.59D-02  1  1     7.58
   2      1.29160415    -0.83647456  -268.10184492    -0.02741229    -0.00201171  0.22D-03  0.66D-03  2  2    12.16
   3      1.30154879    -0.84097404  -268.10634440    -0.00449948    -0.00032472  0.19D-03  0.56D-04  3  3    16.77
   4      1.30646338    -0.84245167  -268.10782202    -0.00147762    -0.00007209  0.43D-04  0.14D-04  4  4    21.40
   5      1.30919332    -0.84283985  -268.10821020    -0.00038818    -0.00002367  0.19D-04  0.32D-05  5  5    26.06
   6      1.31113194    -0.84304430  -268.10841466    -0.00020446    -0.00000645  0.42D-05  0.12D-05  6  6    30.76
   7      1.31208062    -0.84310305  -268.10847341    -0.00005875    -0.00000208  0.14D-05  0.37D-06  6  2    35.50
   8      1.31252168    -0.84314571  -268.10851607    -0.00004265    -0.00000065  0.45D-06  0.11D-06  6  1    40.25
   9      1.31270660    -0.84315029  -268.10852064    -0.00000458    -0.00000022  0.15D-06  0.35D-07  6  4    44.99
  10      1.31276969    -0.84315321  -268.10852357    -0.00000293    -0.00000005  0.35D-07  0.95D-08  6  3    49.77
  11      1.31279915    -0.84315195  -268.10852231     0.00000126    -0.00000002  0.13D-07  0.28D-08  6  5    54.53
  12      1.31280951    -0.84315169  -268.10852205     0.00000026    -0.00000000  0.26D-08  0.95D-09  6  6    59.31
  13      1.31280837    -0.84315077  -268.10852113     0.00000092    -0.00000000  0.96D-09  0.28D-09  6  2    64.09
  14      1.31280316    -0.84314993  -268.10852029     0.00000084    -0.00000000  0.21D-09  0.67D-10  6  1    68.92
  15      1.31279909    -0.84314934  -268.10851970     0.00000059    -0.00000000  0.78D-10  0.19D-10  6  4    74.43
  16      1.31279591    -0.84314896  -268.10851932     0.00000038    -0.00000000  0.28D-10  0.63D-11  6  3    80.18
  17      1.31279371    -0.84314872  -268.10851908     0.00000024    -0.00000000  0.10D-10  0.24D-11  6  5    85.68
  18      1.31279280    -0.84314866  -268.10851902     0.00000006    -0.00000000  0.41D-11  0.87D-12  6  6    91.42
  19      1.31279220    -0.84314863  -268.10851898     0.00000003    -0.00000000  0.16D-11  0.37D-12  6  2    97.47
  20      1.31279188    -0.84314862  -268.10851897     0.00000001    -0.00000000  0.60D-12  0.13D-12  6  1   103.84
  21      1.31279171    -0.84314861  -268.10851896     0.00000001    -0.00000000  0.28D-12  0.58D-13  6  4   110.20
  22      1.31279159    -0.84314860  -268.10851895     0.00000001    -0.00000000  0.74D-13  0.21D-13  6  3   115.94
  23      1.31279154    -0.84314859  -268.10851895     0.00000000    -0.00000000  0.21D-13  0.63D-14  6  5   121.66
  24      1.31279153    -0.84314860  -268.10851895    -0.00000000    -0.00000000  0.67D-14  0.22D-14  6  6   127.41
  25      1.31279153    -0.84314860  -268.10851895    -0.00000000    -0.00000000  0.21D-14  0.52D-15  6  2   133.15
  26      1.31279154    -0.84314860  -268.10851895    -0.00000000    -0.00000000  0.77D-15  0.15D-15  6  1   138.90
  27      1.31279155    -0.84314860  -268.10851895    -0.00000000    -0.00000000  0.20D-15  0.62D-16  6  3   144.65
  28      1.31279155    -0.84314860  -268.10851896    -0.00000000    -0.00000000  0.30D-16  0.11D-16  6  4   150.40
  29      1.31279156    -0.84314860  -268.10851896    -0.00000000    -0.00000000  0.70D-17  0.29D-17  6  5   156.14
  30      1.31279156    -0.84314860  -268.10851896    -0.00000000    -0.00000000  0.15D-17  0.54D-18  6  6   161.88
  31      1.31279156    -0.84314860  -268.10851896    -0.00000000    -0.00000000  0.35D-18  0.10D-18  6  2   167.63

 Norm of t1 vector:      0.13871645      S-energy:    -0.00282105      T1 diagnostic:  0.01616942
                                                                       D1 diagnostic:  0.06283889
 Norm of t2 vector:      0.54180191      P-energy:    -0.84032754
                                         Alpha-Beta:  -0.66488380
                                         Alpha-Alpha: -0.09147271
                                         Beta-Beta:   -0.08397103

 Spin contamination <S**2-Sz**2-Sz>     0.00217020

 Memory could be reduced to 28.85 Mwords without degradation in triples
 

 RESULTS
 =======

  Reference energy                   -267.265370357024
  UCCSD singles energy                 -0.002821053724
  UCCSD pair energy                    -0.840327544847
  UCCSD correlation energy             -0.843148598571
  Triples (T) contribution             -0.024978188873
  Total correlation energy             -0.868126787445
 
  RHF-UCCSD energy                   -268.108518955595
  RHF-UCCSD[T] energy                -268.134833311947
  RHF-UCCSD-T energy                 -268.133075538864
 !RHF-UCCSD(T) energy                -268.133497144468

 Program statistics:

 Available memory in ccsd:               999997692
 Min. memory needed in ccsd:               7337057
 Max. memory used in ccsd:                10523002
 Max. memory used in cckext:              10867977 (31 integral passes)
 Max. memory used in cckint:              12633073 ( 1 integral passes)



 **********************************************************************************************************************************
 DATASETS  * FILE   NREC   LENGTH (MB)   RECORD NAMES
              1      18        3.17       500      610      700      900      950      970     1000      129      960     1100   
                                          VAR    BASINP    GEOM    SYMINP    ZMAT    AOBASIS   BASIS     P2S    ABASIS      S 
                                         1400     1410     1200     1210     1080     1600     1650     1700   
                                           T        V       H0       H01     AOSYM     SMH    MOLCAS    OPER   

              2       3        0.77       700     1000     2100   
                                         GEOM     BASIS     RHF  

 PROGRAMS   *        TOTAL  UCCSD(T)       RHF       INT
 CPU TIMES  *       208.84    207.12      0.89      0.74
 REAL TIME  *       218.17 SEC
 DISK USED  *         1.29 GB      
 SF USED    *       553.73 MB      
 GA USED    *         0.00 MB       (max)       0.00 MB       (current)
 **********************************************************************************************************************************

        UCCSD(T)        RHF-SCF 
   -268.13349714   -267.26537036
 **********************************************************************************************************************************
 Variable memory released
