
 Primary working directories    : /tmp/320938.689.gen6.q
 Secondary working directories  : /tmp/320938.689.gen6.q
 Wavefunction directory         : /home/vulcan/mel64643/wfu/
 Main file repository           : /tmp/320938.689.gen6.q/

 ARCHNAME  : Linux/x86_64
 FC        : /opt/intel/compilers_and_libraries_2016.1.150/linux/bin/intel64/ifort
 FCVERSION : 16.0.1
 BLASLIB   : -mkl
 id        : ccgc

 Nodes     nprocs
 n090         3
 Number of processes for MPI-2 version of Molpro:   nprocs(total)=    4   nprocs(compute)=    3   nprocs(helper)=    1
 ga_uses_ma=false, calling ma_init with nominal heap.
 GA-space will be limited to   8.0 MW (determined by -G option)

 Using customized tuning parameters: mindgm=10; mindgv=16; mindgc=4; mindgr=1; noblas=0; mincuda=1000; minvec=7
 default implementation of scratch files=sf  

 ***,Frequencies for min3
 memory,1000,m
 gthresh,energy=1.0d-10,orbital=1.0d-10,oneint=1.0d-16,twoint=1.0d-16,optgrad=1.0d-6,compress=1.0d-13
 geomtyp=xyz
 
  geometry = {
  12
  arbitrary comment
     C    1.776964391707    0.711398808326   -0.047331391796
     C    0.491811976407   -0.059992870174   -0.196493901896
     C    0.450332819107   -1.536294019674    0.101417522804
     O   -0.560767745493    0.727234937526    0.254015897436
     O   -1.837841165583    0.092261408667   -0.120248025919
     H    2.583003203029    0.211564860423   -0.610666382027
     H    1.660974883373    1.742971619557   -0.425491565566
     H    2.095413086204    0.773729781492    1.018499483660
     H   -0.504492144050   -1.982667900042   -0.220373368272
     H    1.282301156274   -2.047109656124   -0.417188683284
     H    0.561954688226   -1.719478211186    1.194689932285
     H   -1.987458092061    0.551198589264   -0.966837679494
  }
 
 basis=cc-pvdz
 {rhf;maxit,200}
 {uccsd(t);maxit,200}

 Variables initialized (661), CPU time= 0.00 sec
 Commands  initialized (458), CPU time= 0.01 sec, 486 directives.
 Default parameters read. Elapsed time= 0.07 sec

 Checking input...
 Passed
1


                                         ***  PROGRAM SYSTEM MOLPRO  ***
                         Copyright, University College Cardiff Consultants Limited, 2008

                                    Version 2010.1 linked May 16 2016 07:17:05


 **********************************************************************************************************************************
 LABEL *   Frequencies for min3                                                          
 Linux-4.4.3/n090(x86_64) 64 bit mpp version                                             DATE: 07-Mar-20          TIME: 05:01:35  
 **********************************************************************************************************************************

 SHA1:             9e8077add272b0f3cad6f7df79ec5211205f459d
 **********************************************************************************************************************************

 THRESHOLDS:

 ZERO    =  1.00D-12  ONEINT  =  1.00D-16  TWOINT  =  1.00D-16  PREFAC  =  1.00D-14  LOCALI  =  1.00D-09  EORDER  =  1.00D-04
 ENERGY  =  1.00D-10  ETEST   =  0.00D+00  EDENS   =  0.00D+00  THRDEDEF=  1.00D-06  GRADIENT=  1.00D-02  STEP    =  1.00D-03
 ORBITAL =  1.00D-10  CIVEC   =  1.00D-05  COEFF   =  1.00D-04  PRINTCI =  5.00D-02  PUNCHCI =  9.90D+01  OPTGRAD =  1.00D-06
 OPTENERG=  1.00D-06  OPTSTEP =  3.00D-04  THRGRAD =  1.00D-10  COMPRESS=  1.00D-13  VARMIN  =  1.00D-07  VARMAX  =  1.00D-03
 THRDOUB =  0.00D+00  THRDIV  =  1.00D-05  THRRED  =  1.00D-07  THRPSP  =  1.00D+00  THRDC   =  1.00D-10  THRCS   =  1.00D-10
 THRNRM  =  1.00D-08  THREQ   =  0.00D+00  THRDE   =  1.00D+00  THRREF  =  1.00D-05  SPARFAC =  1.00D+00  THRDLP  =  1.00D-07
 THRDIA  =  1.00D-10  THRDLS  =  1.00D-07  THRGPS  =  0.00D+00  THRKEX  =  0.00D+00  THRDIS  =  2.00D-01  THRVAR  =  1.00D-10
 THRLOC  =  1.00D-06  THRGAP  =  1.00D-06  THRLOCT = -1.00D+00  THRGAPT = -1.00D+00  THRORB  =  1.00D-06  THRMLTP =  0.00D+00
 THRCPQCI=  1.00D-10  KEXTA   =  0.00D+00  THRCOARS=  0.00D+00  SYMTOL  =  1.00D-06  GRADTOL =  1.00D-06  THROVL  =  1.00D-08
 THRORTH =  1.00D-08  GRID    =  1.00D-06  GRIDMAX =  1.00D-03  DTMAX   =  0.00D+00

 SETTING GEOMTYP        =    XYZ

 Variable memory set to 1000000000 words,  buffer space   230000 words

 SETTING BASIS          =    CC-PVDZ


 Recomputing integrals since basis changed


 Using spherical harmonics

 Library entry C      S cc-pVDZ              selected for orbital group  1
 Library entry C      P cc-pVDZ              selected for orbital group  1
 Library entry C      D cc-pVDZ              selected for orbital group  1
 Library entry O      S cc-pVDZ              selected for orbital group  2
 Library entry O      P cc-pVDZ              selected for orbital group  2
 Library entry O      D cc-pVDZ              selected for orbital group  2
 Library entry H      S cc-pVDZ              selected for orbital group  3
 Library entry H      P cc-pVDZ              selected for orbital group  3

1PROGRAM * SEWARD (Integral evaluation for generally contracted gaussian basis sets)     Author: Roland Lindh, 1990

 Geometry written to block  1 of record 700


 Point group  C1  



 ATOMIC COORDINATES

 NR  ATOM    CHARGE       X              Y              Z

   1  C       6.00    3.357976046    1.344348918   -0.089443368
   2  C       6.00    0.929389944   -0.113370094   -0.371319661
   3  C       6.00    0.851005696   -2.903174955    0.191651343
   4  O       8.00   -1.059697462    1.374274865    0.480020479
   5  O       8.00   -3.473016476    0.174348795   -0.227235837
   6  H       1.00    4.881168650    0.399799645   -1.153992220
   7  H       1.00    3.138787641    3.293739016   -0.804062530
   8  H       1.00    3.959756865    1.462137387    1.924685089
   9  H       1.00   -0.953351988   -3.746699341   -0.416445313
  10  H       1.00    2.423198003   -3.868476611   -0.788372357
  11  H       1.00    1.061940459   -3.249342908    2.257636784
  12  H       1.00   -3.755751492    1.041614378   -1.827058428

 Bond lengths in Bohr (Angstrom)

 1-2  2.846476668  1-6  2.084599074  1-7  2.087784916  1-8  2.105404408  2-3  2.847119878
     ( 1.506290578)     ( 1.103122320)     ( 1.104808195)     ( 1.114132028)     ( 1.506630951)

  2- 4  2.625706813   3- 9  2.082551700   3-10  2.089029055   3-11  2.105379198   4- 5  2.786421133
       ( 1.389464203)       ( 1.102038896)       ( 1.105466565)       ( 1.114118688)       ( 1.474510558)

  5-12  1.841608265
       ( 0.974537122)

 Bond angles

  1-2-3  120.37866573   1-2-4  108.90944847   2-1-6  109.92582289   2-1-7  110.77494288

  2- 1- 8  111.54601990   2- 3- 9  111.28490651   2- 3-10  109.83405925   2- 3-11  110.63333558

  2- 4- 5  109.25828609   3- 2- 4  118.04702874   4- 5-12   98.66572561   6- 1- 7  108.96489197

  6- 1- 8  107.76015444   7- 1- 8  107.77123350   9- 3-10  109.14220118   9- 3-11  107.86286667

 10- 3-11  107.99739969

 NUCLEAR CHARGE:                   41
 NUMBER OF PRIMITIVE AOS:         184
 NUMBER OF SYMMETRY AOS:          179
 NUMBER OF CONTRACTIONS:          105   ( 105A   )
 NUMBER OF CORE ORBITALS:           5   (   5A   )
 NUMBER OF VALENCE ORBITALS:       27   (  27A   )


 NUCLEAR REPULSION ENERGY  183.23625509


 Eigenvalues of metric

         1 0.345E-02 0.435E-02 0.105E-01 0.141E-01 0.182E-01 0.214E-01 0.331E-01 0.346E-01


 Contracted 2-electron integrals neglected if value below      1.0D-16
 AO integral compression algorithm  1   Integral accuracy      1.0D-16

     127.664 MB (compressed) written to integral file ( 93.2%)

     Node minimum: 41.157 MB, node maximum: 43.778 MB


 NUMBER OF SORTED TWO-ELECTRON INTEGRALS:    5164320.     BUFFER LENGTH:  32768
 NUMBER OF SEGMENTS:   1  SEGMENT LENGTH:    5164320      RECORD LENGTH: 524288

 Memory used in sort:       5.72 MW

 SORT1 READ    17075629. AND WROTE     5136029. INTEGRALS IN     15 RECORDS. CPU TIME:     0.19 SEC, REAL TIME:     0.23 SEC
 SORT2 READ    15396994. AND WROTE    15487395. INTEGRALS IN    501 RECORDS. CPU TIME:     0.06 SEC, REAL TIME:     0.09 SEC

 Node minimum:     5160610.  Node maximum:     5164320. integrals

 OPERATOR DM      FOR CENTER  0  COORDINATES:    0.000000    0.000000    0.000000


 **********************************************************************************************************************************
 DATASETS  * FILE   NREC   LENGTH (MB)   RECORD NAMES
              1      18        3.17       500      610      700      900      950      970     1000      129      960     1100   
                                          VAR    BASINP    GEOM    SYMINP    ZMAT    AOBASIS   BASIS     P2S    ABASIS      S 
                                         1400     1410     1200     1210     1080     1600     1650     1700   
                                           T        V       H0       H01     AOSYM     SMH    MOLCAS    OPER   

 PROGRAMS   *        TOTAL       INT
 CPU TIMES  *         0.83      0.76
 REAL TIME  *         1.27 SEC
 DISK USED  *       305.44 MB      
 GA USED    *         0.00 MB       (max)       0.00 MB       (current)
 **********************************************************************************************************************************

1PROGRAM * RHF-SCF (OPEN SHELL)       Authors: W. Meyer, H.-J. Werner


 NUMBER OF ELECTRONS:      21+   20-    SPACE SYMMETRY=1    SPIN SYMMETRY: Doublet 
 CONVERGENCE THRESHOLDS:    1.00E-10 (Density)    1.00E-11 (Energy)
 MAX. NUMBER OF ITERATIONS:      200
 INTERPOLATION TYPE:            DIIS
 INTERPOLATION STEPS:              2 (START)      1 (STEP)
 LEVEL SHIFTS:                 -0.30 (CLOSED)  0.00 (OPEN) 



 Orbital guess generated from atomic densities. Full valence occupancy:   32

 Molecular orbital dump at record        2100.2

 ITERATION    DDIFF          GRAD             ENERGY        2-EL.EN.            DIPOLE MOMENTS         DIIS
    1      0.000D+00      0.000D+00      -267.17829591    555.842881    0.56881    0.04997   -0.74829    0
    2      0.000D+00      0.617D-02      -267.24897157    555.766316    0.41390   -0.13103   -0.59870    1
    3      0.927D-02      0.214D-02      -267.26113776    555.683545    0.39370   -0.05919   -0.62616    2
    4      0.336D-02      0.912D-03      -267.26474063    555.836101    0.37929   -0.09941   -0.64267    3
    5      0.186D-02      0.363D-03      -267.26530869    555.807509    0.38190   -0.09294   -0.63570    4
    6      0.792D-03      0.110D-03      -267.26538489    555.793707    0.38018   -0.09274   -0.63844    5
    7      0.277D-03      0.511D-04      -267.26540495    555.790722    0.37949   -0.09249   -0.63793    6
    8      0.143D-03      0.272D-04      -267.26541100    555.788761    0.37977   -0.09260   -0.63814    7
    9      0.923D-04      0.115D-04      -267.26541191    555.789080    0.37996   -0.09256   -0.63790    8
   10      0.365D-04      0.500D-05      -267.26541207    555.789689    0.38021   -0.09257   -0.63797    9
   11      0.146D-04      0.196D-05      -267.26541210    555.789531    0.38026   -0.09257   -0.63797    9
   12      0.649D-05      0.669D-06      -267.26541210    555.789666    0.38028   -0.09257   -0.63797    9
   13      0.227D-05      0.226D-06      -267.26541210    555.789582    0.38029   -0.09257   -0.63796    9
   14      0.631D-06      0.756D-07      -267.26541210    555.789591    0.38029   -0.09257   -0.63796    9
   15      0.192D-06      0.300D-07      -267.26541210    555.789587    0.38029   -0.09257   -0.63796    9
   16      0.825D-07      0.145D-07      -267.26541210    555.789588    0.38029   -0.09257   -0.63796    9
   17      0.375D-07      0.752D-08      -267.26541210    555.789588    0.38029   -0.09257   -0.63796    9
   18      0.223D-07      0.341D-08      -267.26541210    555.789588    0.38029   -0.09257   -0.63796    9
   19      0.114D-07      0.133D-08      -267.26541210    555.789588    0.38029   -0.09257   -0.63796    9
   20      0.443D-08      0.566D-09      -267.26541210    555.789588    0.38029   -0.09257   -0.63796    9
   21      0.165D-08      0.286D-09      -267.26541210    555.789588    0.38029   -0.09257   -0.63796    9
   22      0.753D-09      0.161D-09      -267.26541210    555.789588    0.38029   -0.09257   -0.63796    9
   23      0.445D-09      0.794D-10      -267.26541210    555.789588    0.38029   -0.09257   -0.63796    9
   24      0.263D-09      0.315D-10      -267.26541210    555.789588    0.38029   -0.09257   -0.63796    9
   25      0.928D-10      0.129D-10      -267.26541210    555.789588    0.38029   -0.09257   -0.63796    0

 Final alpha occupancy:  21
 Final beta  occupancy:  20

 !RHF STATE 1.1 Energy               -267.265412098957
 Nuclear energy                       183.23625509
 One-electron energy                 -728.39646136
 Two-electron energy                  277.89479417
 Virial quotient                       -1.00154524
 !RHF STATE 1.1 Dipole moment           0.38028837    -0.09257039    -0.63796452
 Dipole moment /Debye                   0.96653330    -0.23527506    -1.62143787

 Orbital energies:

         1.1          2.1          3.1          4.1          5.1          6.1          7.1          8.1          9.1         10.1
    -20.630421   -20.628838   -11.279225   -11.237696   -11.232203    -1.470260    -1.240690    -1.023269    -0.945428    -0.768497

        11.1         12.1         13.1         14.1         15.1         16.1         17.1         18.1         19.1         20.1
     -0.704615    -0.643073    -0.626898    -0.588656    -0.545199    -0.543483    -0.539123    -0.516968    -0.492989    -0.469799

        21.1         22.1         23.1
     -0.352215     0.181296     0.183666


 **********************************************************************************************************************************
 DATASETS  * FILE   NREC   LENGTH (MB)   RECORD NAMES
              1      18        3.17       500      610      700      900      950      970     1000      129      960     1100   
                                          VAR    BASINP    GEOM    SYMINP    ZMAT    AOBASIS   BASIS     P2S    ABASIS      S 
                                         1400     1410     1200     1210     1080     1600     1650     1700   
                                           T        V       H0       H01     AOSYM     SMH    MOLCAS    OPER   

              2       3        0.77       700     1000     2100   
                                         GEOM     BASIS     RHF  

 PROGRAMS   *        TOTAL       RHF       INT
 CPU TIMES  *         1.77      0.94      0.76
 REAL TIME  *         2.34 SEC
 DISK USED  *       322.01 MB      
 SF USED    *         0.04 MB      
 GA USED    *         0.00 MB       (max)       0.00 MB       (current)
 **********************************************************************************************************************************


1PROGRAM * CCSD (Unrestricted open-shell coupled cluster)     Authors: C. Hampel, H.-J. Werner, 1991, M. Deegan, P.J. Knowles, 1992


 Convergence thresholds:  THRVAR = 1.00D-08  THRDEN = 1.00D-10

 CCSD(T)     terms to be evaluated (factor= 1.000)


 Number of core orbitals:           5 (   5 )
 Number of closed-shell orbitals:  15 (  15 )
 Number of active  orbitals:        1 (   1 )
 Number of external orbitals:      84 (  84 )

 Memory could be reduced to 24.91 Mwords without degradation in triples

 Number of N-1 electron functions:              31
 Number of N-2 electron functions:             465
 Number of singly external CSFs:              2635
 Number of doubly external CSFs:           2537250
 Total number of CSFs:                     2539885

 Molecular orbitals read from record     2100.2  Type=RHF/CANONICAL (state 1.1)

 Integral transformation finished. Total CPU:   0.71 sec, npass=  1  Memory used:  12.63 MW

 Starting RMP2 calculation

 ITER.      SQ.NORM     CORR.ENERGY   TOTAL ENERGY   ENERGY CHANGE        DEN1      VAR(S)    VAR(P)  DIIS     TIME
   1      1.24300383    -0.78636570  -268.05177780    -0.78636570    -0.00304920  0.20D-04  0.11D-02  1  1     0.96
   2      1.24564443    -0.78965403  -268.05506613    -0.00328833    -0.00000474  0.54D-06  0.19D-05  2  2     1.20
   3      1.24570997    -0.78969609  -268.05510819    -0.00004206    -0.00000003  0.16D-07  0.68D-08  3  3     1.46
   4      1.24571093    -0.78969609  -268.05510819    -0.00000000    -0.00000000  0.27D-09  0.38D-10  4  4     1.75
   5      1.24571101    -0.78969612  -268.05510822    -0.00000003    -0.00000000  0.25D-11  0.65D-12  5  5     2.05
   6      1.24571102    -0.78969613  -268.05510823    -0.00000001    -0.00000000  0.28D-13  0.87D-14  6  6     2.38
   7      1.24571102    -0.78969613  -268.05510823     0.00000000    -0.00000000  0.47D-15  0.12D-15  6  1     2.72
   8      1.24571102    -0.78969613  -268.05510823     0.00000000    -0.00000000  0.60D-17  0.13D-17  6  2     3.05

 Norm of t1 vector:      0.03893667      S-energy:    -0.00227199      T1 diagnostic:  0.00055039
 Norm of t2 vector:      0.49416086      P-energy:    -0.78742414
                                         Alpha-Beta:  -0.59339982
                                         Alpha-Alpha: -0.10094200
                                         Beta-Beta:   -0.09308232

 Spin contamination <S**2-Sz**2-Sz>     0.00104054
  Reference energy                   -267.265412098955
  RHF-RMP2 correlation energy          -0.789696129542
 !RHF-RMP2 energy                    -268.055108228497

 Starting UCCSD calculation

 ITER.      SQ.NORM     CORR.ENERGY   TOTAL ENERGY   ENERGY CHANGE        DEN1      VAR(S)    VAR(P)  DIIS     TIME
   1      1.26277242    -0.80903485  -268.07444695    -0.80903485    -0.02515255  0.38D-02  0.59D-02  1  1     7.77
   2      1.29153867    -0.83643964  -268.10185174    -0.02740478    -0.00201068  0.22D-03  0.66D-03  2  2    12.50
   3      1.30147677    -0.84093641  -268.10634851    -0.00449677    -0.00032457  0.19D-03  0.56D-04  3  3    17.27
   4      1.30638884    -0.84241323  -268.10782533    -0.00147683    -0.00007205  0.43D-04  0.14D-04  4  4    22.05
   5      1.30911774    -0.84280126  -268.10821336    -0.00038803    -0.00002364  0.19D-04  0.32D-05  5  5    26.89
   6      1.31105480    -0.84300558  -268.10841768    -0.00020432    -0.00000644  0.42D-05  0.12D-05  6  6    31.77
   7      1.31200214    -0.84306428  -268.10847638    -0.00005870    -0.00000207  0.14D-05  0.37D-06  6  2    36.63
   8      1.31244237    -0.84310686  -268.10851896    -0.00004259    -0.00000065  0.45D-06  0.11D-06  6  1    41.48
   9      1.31262698    -0.84311143  -268.10852353    -0.00000457    -0.00000022  0.15D-06  0.35D-07  6  4    46.35
  10      1.31268997    -0.84311435  -268.10852645    -0.00000292    -0.00000005  0.35D-07  0.95D-08  6  3    51.21
  11      1.31271940    -0.84311310  -268.10852519     0.00000126    -0.00000002  0.13D-07  0.28D-08  6  5    56.06
  12      1.31272973    -0.84311283  -268.10852493     0.00000026    -0.00000000  0.26D-08  0.95D-09  6  6    60.91
  13      1.31272857    -0.84311192  -268.10852402     0.00000092    -0.00000000  0.96D-09  0.28D-09  6  2    65.82
  14      1.31272336    -0.84311107  -268.10852317     0.00000085    -0.00000000  0.21D-09  0.67D-10  6  1    70.69
  15      1.31271929    -0.84311049  -268.10852258     0.00000059    -0.00000000  0.78D-10  0.19D-10  6  4    75.55
  16      1.31271611    -0.84311010  -268.10852220     0.00000038    -0.00000000  0.28D-10  0.62D-11  6  3    80.41
  17      1.31271392    -0.84310986  -268.10852196     0.00000024    -0.00000000  0.10D-10  0.24D-11  6  5    85.26
  18      1.31271302    -0.84310981  -268.10852190     0.00000006    -0.00000000  0.40D-11  0.86D-12  6  6    90.12
  19      1.31271241    -0.84310977  -268.10852187     0.00000003    -0.00000000  0.16D-11  0.37D-12  6  2    94.98
  20      1.31271209    -0.84310976  -268.10852186     0.00000001    -0.00000000  0.59D-12  0.13D-12  6  1    99.82
  21      1.31271193    -0.84310975  -268.10852185     0.00000001    -0.00000000  0.28D-12  0.57D-13  6  4   105.39
  22      1.31271181    -0.84310974  -268.10852184     0.00000001    -0.00000000  0.73D-13  0.21D-13  6  3   111.20
  23      1.31271175    -0.84310974  -268.10852184     0.00000000    -0.00000000  0.21D-13  0.62D-14  6  5   116.98
  24      1.31271175    -0.84310974  -268.10852184    -0.00000000    -0.00000000  0.67D-14  0.22D-14  6  6   122.76
  25      1.31271175    -0.84310974  -268.10852184    -0.00000000    -0.00000000  0.21D-14  0.52D-15  6  2   128.54
  26      1.31271176    -0.84310974  -268.10852184    -0.00000000    -0.00000000  0.76D-15  0.15D-15  6  1   134.33
  27      1.31271177    -0.84310974  -268.10852184    -0.00000000    -0.00000000  0.19D-15  0.62D-16  6  3   140.14
  28      1.31271177    -0.84310974  -268.10852184    -0.00000000    -0.00000000  0.29D-16  0.11D-16  6  4   145.92
  29      1.31271177    -0.84310974  -268.10852184    -0.00000000    -0.00000000  0.70D-17  0.29D-17  6  5   151.70
  30      1.31271178    -0.84310974  -268.10852184    -0.00000000    -0.00000000  0.15D-17  0.53D-18  6  6   157.49
  31      1.31271178    -0.84310974  -268.10852184    -0.00000000    -0.00000000  0.35D-18  0.10D-18  6  2   163.28

 Norm of t1 vector:      0.13869616      S-energy:    -0.00282148      T1 diagnostic:  0.01616677
                                                                       D1 diagnostic:  0.06283210
 Norm of t2 vector:      0.54173347      P-energy:    -0.84028827
                                         Alpha-Beta:  -0.66483742
                                         Alpha-Alpha: -0.09147569
                                         Beta-Beta:   -0.08397516

 Spin contamination <S**2-Sz**2-Sz>     0.00216870

 Memory could be reduced to 28.85 Mwords without degradation in triples
 

 RESULTS
 =======

  Reference energy                   -267.265412098955
  UCCSD singles energy                 -0.002821476688
  UCCSD pair energy                    -0.840288265106
  UCCSD correlation energy             -0.843109741794
  Triples (T) contribution             -0.024972167535
  Total correlation energy             -0.868081909329
 
  RHF-UCCSD energy                   -268.108521840750
  RHF-UCCSD[T] energy                -268.134829598141
  RHF-UCCSD-T energy                 -268.133072539530
 !RHF-UCCSD(T) energy                -268.133494008284

 Program statistics:

 Available memory in ccsd:               999997692
 Min. memory needed in ccsd:               7337057
 Max. memory used in ccsd:                10523002
 Max. memory used in cckext:              10867977 (31 integral passes)
 Max. memory used in cckint:              12633073 ( 1 integral passes)



 **********************************************************************************************************************************
 DATASETS  * FILE   NREC   LENGTH (MB)   RECORD NAMES
              1      18        3.17       500      610      700      900      950      970     1000      129      960     1100   
                                          VAR    BASINP    GEOM    SYMINP    ZMAT    AOBASIS   BASIS     P2S    ABASIS      S 
                                         1400     1410     1200     1210     1080     1600     1650     1700   
                                           T        V       H0       H01     AOSYM     SMH    MOLCAS    OPER   

              2       3        0.77       700     1000     2100   
                                         GEOM     BASIS     RHF  

 PROGRAMS   *        TOTAL  UCCSD(T)       RHF       INT
 CPU TIMES  *       202.98    201.21      0.94      0.76
 REAL TIME  *       212.21 SEC
 DISK USED  *         1.29 GB      
 SF USED    *       553.73 MB      
 GA USED    *         0.00 MB       (max)       0.00 MB       (current)
 **********************************************************************************************************************************

        UCCSD(T)        RHF-SCF 
   -268.13349401   -267.26541210
 **********************************************************************************************************************************
 Variable memory released
