
 Primary working directories    : /tmp/320938.93.gen4.q
 Secondary working directories  : /tmp/320938.93.gen4.q
 Wavefunction directory         : /home/vulcan/mel64643/wfu/
 Main file repository           : /tmp/320938.93.gen4.q/

 ARCHNAME  : Linux/x86_64
 FC        : /opt/intel/compilers_and_libraries_2016.1.150/linux/bin/intel64/ifort
 FCVERSION : 16.0.1
 BLASLIB   : -mkl
 id        : ccgc

 Nodes     nprocs
 n041         3
 Number of processes for MPI-2 version of Molpro:   nprocs(total)=    4   nprocs(compute)=    3   nprocs(helper)=    1
 ga_uses_ma=false, calling ma_init with nominal heap.
 GA-space will be limited to   8.0 MW (determined by -G option)

 Using customized tuning parameters: mindgm=10; mindgv=16; mindgc=4; mindgr=1; noblas=0; mincuda=1000; minvec=7
 default implementation of scratch files=sf  

 ***,Frequencies for min3
 memory,1000,m
 gthresh,energy=1.0d-10,orbital=1.0d-10,oneint=1.0d-16,twoint=1.0d-16,optgrad=1.0d-6,compress=1.0d-13
 geomtyp=xyz
 
  geometry = {
  12
  arbitrary comment
     C    1.776278548007    0.711327343990   -0.047325832693
     C    0.491946274645   -0.060012827333   -0.196492114088
     C    0.450406735260   -1.536312020726    0.101420596918
     O   -0.560603393482    0.727257722332    0.254451286492
     O   -1.837700184902    0.092342785896   -0.120538348037
     H    2.583116535980    0.211256018365   -0.611300565637
     H    1.661186966990    1.742768227087   -0.426505119089
     H    2.095671862676    0.773920781029    1.017736456226
     H   -0.504474409940   -1.982690088159   -0.220155224118
     H    1.282301499126   -2.047289117561   -0.417076799619
     H    0.562086128675   -1.719149933815    1.194757054052
     H   -1.987350603556    0.551042944888   -0.967250463435
  }
 
 basis=cc-pvdz
 {rhf;maxit,200}
 {uccsd(t);maxit,200}

 Variables initialized (661), CPU time= 0.01 sec
 Commands  initialized (458), CPU time= 0.01 sec, 486 directives.
 Default parameters read. Elapsed time= 0.07 sec

 Checking input...
 Passed
1


                                         ***  PROGRAM SYSTEM MOLPRO  ***
                         Copyright, University College Cardiff Consultants Limited, 2008

                                    Version 2010.1 linked May 16 2016 07:17:05


 **********************************************************************************************************************************
 LABEL *   Frequencies for min3                                                          
 Linux-4.4.3/n041(x86_64) 64 bit mpp version                                             DATE: 07-Mar-20          TIME: 01:30:05  
 **********************************************************************************************************************************

 SHA1:             9e8077add272b0f3cad6f7df79ec5211205f459d
 **********************************************************************************************************************************

 THRESHOLDS:

 ZERO    =  1.00D-12  ONEINT  =  1.00D-16  TWOINT  =  1.00D-16  PREFAC  =  1.00D-14  LOCALI  =  1.00D-09  EORDER  =  1.00D-04
 ENERGY  =  1.00D-10  ETEST   =  0.00D+00  EDENS   =  0.00D+00  THRDEDEF=  1.00D-06  GRADIENT=  1.00D-02  STEP    =  1.00D-03
 ORBITAL =  1.00D-10  CIVEC   =  1.00D-05  COEFF   =  1.00D-04  PRINTCI =  5.00D-02  PUNCHCI =  9.90D+01  OPTGRAD =  1.00D-06
 OPTENERG=  1.00D-06  OPTSTEP =  3.00D-04  THRGRAD =  1.00D-10  COMPRESS=  1.00D-13  VARMIN  =  1.00D-07  VARMAX  =  1.00D-03
 THRDOUB =  0.00D+00  THRDIV  =  1.00D-05  THRRED  =  1.00D-07  THRPSP  =  1.00D+00  THRDC   =  1.00D-10  THRCS   =  1.00D-10
 THRNRM  =  1.00D-08  THREQ   =  0.00D+00  THRDE   =  1.00D+00  THRREF  =  1.00D-05  SPARFAC =  1.00D+00  THRDLP  =  1.00D-07
 THRDIA  =  1.00D-10  THRDLS  =  1.00D-07  THRGPS  =  0.00D+00  THRKEX  =  0.00D+00  THRDIS  =  2.00D-01  THRVAR  =  1.00D-10
 THRLOC  =  1.00D-06  THRGAP  =  1.00D-06  THRLOCT = -1.00D+00  THRGAPT = -1.00D+00  THRORB  =  1.00D-06  THRMLTP =  0.00D+00
 THRCPQCI=  1.00D-10  KEXTA   =  0.00D+00  THRCOARS=  0.00D+00  SYMTOL  =  1.00D-06  GRADTOL =  1.00D-06  THROVL  =  1.00D-08
 THRORTH =  1.00D-08  GRID    =  1.00D-06  GRIDMAX =  1.00D-03  DTMAX   =  0.00D+00

 SETTING GEOMTYP        =    XYZ

 Variable memory set to 1000000000 words,  buffer space   230000 words

 SETTING BASIS          =    CC-PVDZ


 Recomputing integrals since basis changed


 Using spherical harmonics

 Library entry C      S cc-pVDZ              selected for orbital group  1
 Library entry C      P cc-pVDZ              selected for orbital group  1
 Library entry C      D cc-pVDZ              selected for orbital group  1
 Library entry O      S cc-pVDZ              selected for orbital group  2
 Library entry O      P cc-pVDZ              selected for orbital group  2
 Library entry O      D cc-pVDZ              selected for orbital group  2
 Library entry H      S cc-pVDZ              selected for orbital group  3
 Library entry H      P cc-pVDZ              selected for orbital group  3

1PROGRAM * SEWARD (Integral evaluation for generally contracted gaussian basis sets)     Author: Roland Lindh, 1990

 Geometry written to block  1 of record 700


 Point group  C1  



 ATOMIC COORDINATES

 NR  ATOM    CHARGE       X              Y              Z

   1  C       6.00    3.356679989    1.344213870   -0.089432863
   2  C       6.00    0.929643730   -0.113407808   -0.371316283
   3  C       6.00    0.851145377   -2.903208972    0.191657152
   4  O       8.00   -1.059386882    1.374317922    0.480843245
   5  O       8.00   -3.472750061    0.174502576   -0.227784466
   6  H       1.00    4.881382819    0.399216018   -1.155190653
   7  H       1.00    3.139188421    3.293354660   -0.805977869
   8  H       1.00    3.960245882    1.462498324    1.923243176
   9  H       1.00   -0.953318475   -3.746741270   -0.416033080
  10  H       1.00    2.423198651   -3.868815744   -0.788160927
  11  H       1.00    1.062188845   -3.248722554    2.257763626
  12  H       1.00   -3.755548368    1.041320252   -1.827838476

 Bond lengths in Bohr (Angstrom)

 1-2  2.845105309  1-6  2.086523263  1-7  2.088034757  1-8  2.104554071  2-3  2.847119880
     ( 1.505564887)     ( 1.104140557)     ( 1.104940405)     ( 1.113682049)     ( 1.506630952)

  2- 4  2.625975340   3- 9  2.082528260   3-10  2.088968981   3-11  2.105401373   4- 5  2.786760114
       ( 1.389606301)       ( 1.102026492)       ( 1.105434775)       ( 1.114130422)       ( 1.474689939)

  5-12  1.841608157
       ( 0.974537064)

 Bond angles

  1-2-3  120.39382132   1-2-4  108.88909247   2-1-6  109.92071967   2-1-7  110.81745125

  2- 1- 8  111.60431253   2- 3- 9  111.28993360   2- 3-10  109.84277019   2- 3-11  110.61486525

  2- 4- 5  109.23946114   3- 2- 4  118.03986083   4- 5-12   98.70031370   6- 1- 7  108.88135640

  6- 1- 8  107.72020044   7- 1- 8  107.79381651   9- 3-10  109.14542670   9- 3-11  107.86290308

 10- 3-11  107.99881367

 NUCLEAR CHARGE:                   41
 NUMBER OF PRIMITIVE AOS:         184
 NUMBER OF SYMMETRY AOS:          179
 NUMBER OF CONTRACTIONS:          105   ( 105A   )
 NUMBER OF CORE ORBITALS:           5   (   5A   )
 NUMBER OF VALENCE ORBITALS:       27   (  27A   )


 NUCLEAR REPULSION ENERGY  183.24195208


 Eigenvalues of metric

         1 0.345E-02 0.435E-02 0.105E-01 0.141E-01 0.182E-01 0.214E-01 0.331E-01 0.346E-01


 Contracted 2-electron integrals neglected if value below      1.0D-16
 AO integral compression algorithm  1   Integral accuracy      1.0D-16

     127.664 MB (compressed) written to integral file ( 93.2%)

     Node minimum: 40.894 MB, node maximum: 44.827 MB


 NUMBER OF SORTED TWO-ELECTRON INTEGRALS:    5164320.     BUFFER LENGTH:  32768
 NUMBER OF SEGMENTS:   1  SEGMENT LENGTH:    5164320      RECORD LENGTH: 524288

 Memory used in sort:       5.72 MW

 SORT1 READ    17075629. AND WROTE     5136027. INTEGRALS IN     15 RECORDS. CPU TIME:     0.24 SEC, REAL TIME:     0.28 SEC
 SORT2 READ    15397005. AND WROTE    15487395. INTEGRALS IN    480 RECORDS. CPU TIME:     0.08 SEC, REAL TIME:     0.11 SEC

 Node minimum:     5160610.  Node maximum:     5164320. integrals

 OPERATOR DM      FOR CENTER  0  COORDINATES:    0.000000    0.000000    0.000000


 **********************************************************************************************************************************
 DATASETS  * FILE   NREC   LENGTH (MB)   RECORD NAMES
              1      18        3.17       500      610      700      900      950      970     1000      129      960     1100   
                                          VAR    BASINP    GEOM    SYMINP    ZMAT    AOBASIS   BASIS     P2S    ABASIS      S 
                                         1400     1410     1200     1210     1080     1600     1650     1700   
                                           T        V       H0       H01     AOSYM     SMH    MOLCAS    OPER   

 PROGRAMS   *        TOTAL       INT
 CPU TIMES  *         1.33      1.22
 REAL TIME  *         1.64 SEC
 DISK USED  *       306.23 MB      
 GA USED    *         0.00 MB       (max)       0.00 MB       (current)
 **********************************************************************************************************************************

1PROGRAM * RHF-SCF (OPEN SHELL)       Authors: W. Meyer, H.-J. Werner


 NUMBER OF ELECTRONS:      21+   20-    SPACE SYMMETRY=1    SPIN SYMMETRY: Doublet 
 CONVERGENCE THRESHOLDS:    1.00E-10 (Density)    1.00E-11 (Energy)
 MAX. NUMBER OF ITERATIONS:      200
 INTERPOLATION TYPE:            DIIS
 INTERPOLATION STEPS:              2 (START)      1 (STEP)
 LEVEL SHIFTS:                 -0.30 (CLOSED)  0.00 (OPEN) 



 Orbital guess generated from atomic densities. Full valence occupancy:   32

 Molecular orbital dump at record        2100.2

 ITERATION    DDIFF          GRAD             ENERGY        2-EL.EN.            DIPOLE MOMENTS         DIIS
    1      0.000D+00      0.000D+00      -267.17826268    555.859035    0.57104    0.04945   -0.74936    0
    2      0.000D+00      0.617D-02      -267.24894476    555.777627    0.41481   -0.13119   -0.59910    1
    3      0.927D-02      0.214D-02      -267.26111730    555.695819    0.39443   -0.05939   -0.62645    2
    4      0.336D-02      0.912D-03      -267.26472273    555.848061    0.37982   -0.09960   -0.64288    3
    5      0.186D-02      0.364D-03      -267.26529122    555.819371    0.38237   -0.09312   -0.63586    4
    6      0.792D-03      0.110D-03      -267.26536747    555.805616    0.38064   -0.09292   -0.63860    5
    7      0.277D-03      0.510D-04      -267.26538754    555.802622    0.37994   -0.09266   -0.63808    6
    8      0.143D-03      0.272D-04      -267.26539358    555.800668    0.38022   -0.09277   -0.63829    7
    9      0.923D-04      0.115D-04      -267.26539450    555.800988    0.38041   -0.09273   -0.63805    8
   10      0.366D-04      0.500D-05      -267.26539466    555.801597    0.38067   -0.09274   -0.63811    9
   11      0.146D-04      0.196D-05      -267.26539468    555.801439    0.38072   -0.09274   -0.63812    9
   12      0.649D-05      0.669D-06      -267.26539469    555.801573    0.38074   -0.09274   -0.63812    9
   13      0.227D-05      0.226D-06      -267.26539469    555.801489    0.38074   -0.09274   -0.63811    9
   14      0.631D-06      0.756D-07      -267.26539469    555.801498    0.38074   -0.09274   -0.63811    9
   15      0.192D-06      0.300D-07      -267.26539469    555.801494    0.38074   -0.09274   -0.63811    9
   16      0.824D-07      0.145D-07      -267.26539469    555.801495    0.38074   -0.09274   -0.63811    9
   17      0.373D-07      0.750D-08      -267.26539469    555.801495    0.38074   -0.09274   -0.63811    9
   18      0.222D-07      0.341D-08      -267.26539469    555.801495    0.38074   -0.09274   -0.63811    9
   19      0.114D-07      0.133D-08      -267.26539469    555.801495    0.38074   -0.09274   -0.63811    9
   20      0.443D-08      0.565D-09      -267.26539469    555.801495    0.38074   -0.09274   -0.63811    9
   21      0.165D-08      0.286D-09      -267.26539469    555.801495    0.38074   -0.09274   -0.63811    9
   22      0.751D-09      0.161D-09      -267.26539469    555.801495    0.38074   -0.09274   -0.63811    9
   23      0.445D-09      0.793D-10      -267.26539469    555.801495    0.38074   -0.09274   -0.63811    9
   24      0.263D-09      0.315D-10      -267.26539469    555.801495    0.38074   -0.09274   -0.63811    9
   25      0.928D-10      0.129D-10      -267.26539469    555.801495    0.38074   -0.09274   -0.63811    0

 Final alpha occupancy:  21
 Final beta  occupancy:  20

 !RHF STATE 1.1 Energy               -267.265394686715
 Nuclear energy                       183.24195208
 One-electron energy                 -728.40809440
 Two-electron energy                  277.90074763
 Virial quotient                       -1.00154591
 !RHF STATE 1.1 Dipole moment           0.38074009    -0.09274199    -0.63811379
 Dipole moment /Debye                   0.96768141    -0.23571118    -1.62181724

 Orbital energies:

         1.1          2.1          3.1          4.1          5.1          6.1          7.1          8.1          9.1         10.1
    -20.630435   -20.628800   -11.279224   -11.237713   -11.232216    -1.470142    -1.240689    -1.023354    -0.945450    -0.768476

        11.1         12.1         13.1         14.1         15.1         16.1         17.1         18.1         19.1         20.1
     -0.704549    -0.643118    -0.626810    -0.588775    -0.545154    -0.543393    -0.539012    -0.517002    -0.492981    -0.469862

        21.1         22.1         23.1
     -0.352292     0.181284     0.183605


 **********************************************************************************************************************************
 DATASETS  * FILE   NREC   LENGTH (MB)   RECORD NAMES
              1      18        3.17       500      610      700      900      950      970     1000      129      960     1100   
                                          VAR    BASINP    GEOM    SYMINP    ZMAT    AOBASIS   BASIS     P2S    ABASIS      S 
                                         1400     1410     1200     1210     1080     1600     1650     1700   
                                           T        V       H0       H01     AOSYM     SMH    MOLCAS    OPER   

              2       3        0.77       700     1000     2100   
                                         GEOM     BASIS     RHF  

 PROGRAMS   *        TOTAL       RHF       INT
 CPU TIMES  *         2.72      1.39      1.22
 REAL TIME  *         3.20 SEC
 DISK USED  *       322.79 MB      
 SF USED    *         0.04 MB      
 GA USED    *         0.00 MB       (max)       0.00 MB       (current)
 **********************************************************************************************************************************


1PROGRAM * CCSD (Unrestricted open-shell coupled cluster)     Authors: C. Hampel, H.-J. Werner, 1991, M. Deegan, P.J. Knowles, 1992


 Convergence thresholds:  THRVAR = 1.00D-08  THRDEN = 1.00D-10

 CCSD(T)     terms to be evaluated (factor= 1.000)


 Number of core orbitals:           5 (   5 )
 Number of closed-shell orbitals:  15 (  15 )
 Number of active  orbitals:        1 (   1 )
 Number of external orbitals:      84 (  84 )

 Memory could be reduced to 24.91 Mwords without degradation in triples

 Number of N-1 electron functions:              31
 Number of N-2 electron functions:             465
 Number of singly external CSFs:              2635
 Number of doubly external CSFs:           2537250
 Total number of CSFs:                     2539885

 Molecular orbitals read from record     2100.2  Type=RHF/CANONICAL (state 1.1)

 Integral transformation finished. Total CPU:   1.59 sec, npass=  1  Memory used:  12.63 MW

 Starting RMP2 calculation

 ITER.      SQ.NORM     CORR.ENERGY   TOTAL ENERGY   ENERGY CHANGE        DEN1      VAR(S)    VAR(P)  DIIS     TIME
   1      1.24301823    -0.78638377  -268.05177846    -0.78638377    -0.00304954  0.20D-04  0.11D-02  1  1     2.08
   2      1.24565933    -0.78967248  -268.05506717    -0.00328871    -0.00000475  0.54D-06  0.19D-05  2  2     2.50
   3      1.24572489    -0.78971455  -268.05510924    -0.00004207    -0.00000003  0.16D-07  0.68D-08  3  3     2.95
   4      1.24572585    -0.78971455  -268.05510924    -0.00000000    -0.00000000  0.27D-09  0.38D-10  4  4     3.44
   5      1.24572593    -0.78971459  -268.05510927    -0.00000003    -0.00000000  0.25D-11  0.65D-12  5  5     3.94
   6      1.24572594    -0.78971459  -268.05510928    -0.00000001    -0.00000000  0.28D-13  0.87D-14  6  6     4.48
   7      1.24572594    -0.78971459  -268.05510928     0.00000000    -0.00000000  0.47D-15  0.12D-15  6  1     5.02
   8      1.24572594    -0.78971459  -268.05510928     0.00000000    -0.00000000  0.60D-17  0.13D-17  6  2     5.57

 Norm of t1 vector:      0.03893222      S-energy:    -0.00227164      T1 diagnostic:  0.00055046
 Norm of t2 vector:      0.49417631      P-energy:    -0.78744296
                                         Alpha-Beta:  -0.59341391
                                         Alpha-Alpha: -0.10094475
                                         Beta-Beta:   -0.09308430

 Spin contamination <S**2-Sz**2-Sz>     0.00104018
  Reference energy                   -267.265394686716
  RHF-RMP2 correlation energy          -0.789714593704
 !RHF-RMP2 energy                    -268.055109280420

 Starting UCCSD calculation

 ITER.      SQ.NORM     CORR.ENERGY   TOTAL ENERGY   ENERGY CHANGE        DEN1      VAR(S)    VAR(P)  DIIS     TIME
   1      1.26278387    -0.80904686  -268.07444155    -0.80904686    -0.02515545  0.38D-02  0.59D-02  1  1    15.20
   2      1.29155494    -0.83645422  -268.10184891    -0.02740735    -0.00201134  0.22D-03  0.66D-03  2  2    24.78
   3      1.30149642    -0.84095226  -268.10634695    -0.00449804    -0.00032467  0.19D-03  0.56D-04  3  3    34.37
   4      1.30641047    -0.84242958  -268.10782427    -0.00147732    -0.00007208  0.43D-04  0.14D-04  4  4    44.02
   5      1.30914036    -0.84281773  -268.10821242    -0.00038815    -0.00002366  0.19D-04  0.32D-05  5  5    53.88
   6      1.31107858    -0.84302216  -268.10841684    -0.00020442    -0.00000645  0.42D-05  0.12D-05  6  6    63.87
   7      1.31202680    -0.84308088  -268.10847557    -0.00005873    -0.00000208  0.14D-05  0.37D-06  6  2    73.95
   8      1.31246754    -0.84312351  -268.10851820    -0.00004263    -0.00000065  0.45D-06  0.11D-06  6  1    84.02
   9      1.31265226    -0.84312808  -268.10852277    -0.00000457    -0.00000022  0.15D-06  0.35D-07  6  4    94.01
  10      1.31271523    -0.84313100  -268.10852568    -0.00000292    -0.00000005  0.35D-07  0.95D-08  6  3   103.63
  11      1.31274467    -0.84312974  -268.10852443     0.00000126    -0.00000002  0.13D-07  0.28D-08  6  5   113.36
  12      1.31275501    -0.84312948  -268.10852417     0.00000026    -0.00000000  0.26D-08  0.95D-09  6  6   123.28
  13      1.31275387    -0.84312856  -268.10852325     0.00000091    -0.00000000  0.96D-09  0.28D-09  6  2   133.54
  14      1.31274866    -0.84312772  -268.10852241     0.00000084    -0.00000000  0.21D-09  0.67D-10  6  1   143.28
  15      1.31274459    -0.84312714  -268.10852182     0.00000059    -0.00000000  0.78D-10  0.19D-10  6  4   151.52
  16      1.31274141    -0.84312675  -268.10852144     0.00000038    -0.00000000  0.28D-10  0.63D-11  6  3   159.73
  17      1.31273921    -0.84312651  -268.10852120     0.00000024    -0.00000000  0.10D-10  0.24D-11  6  5   167.98
  18      1.31273831    -0.84312645  -268.10852114     0.00000006    -0.00000000  0.40D-11  0.87D-12  6  6   176.21
  19      1.31273770    -0.84312642  -268.10852111     0.00000003    -0.00000000  0.16D-11  0.37D-12  6  2   184.44
  20      1.31273738    -0.84312641  -268.10852109     0.00000001    -0.00000000  0.60D-12  0.13D-12  6  1   192.69
  21      1.31273722    -0.84312640  -268.10852108     0.00000001    -0.00000000  0.28D-12  0.58D-13  6  4   200.87
  22      1.31273710    -0.84312639  -268.10852108     0.00000001    -0.00000000  0.73D-13  0.21D-13  6  3   209.09
  23      1.31273704    -0.84312639  -268.10852107     0.00000000    -0.00000000  0.21D-13  0.62D-14  6  5   217.34
  24      1.31273703    -0.84312639  -268.10852107    -0.00000000    -0.00000000  0.67D-14  0.22D-14  6  6   225.58
  25      1.31273704    -0.84312639  -268.10852108    -0.00000000    -0.00000000  0.21D-14  0.52D-15  6  2   233.80
  26      1.31273705    -0.84312639  -268.10852108    -0.00000000    -0.00000000  0.76D-15  0.15D-15  6  1   243.82
  27      1.31273706    -0.84312639  -268.10852108    -0.00000000    -0.00000000  0.20D-15  0.62D-16  6  3   253.86
  28      1.31273706    -0.84312639  -268.10852108    -0.00000000    -0.00000000  0.29D-16  0.11D-16  6  4   263.82
  29      1.31273706    -0.84312639  -268.10852108    -0.00000000    -0.00000000  0.70D-17  0.29D-17  6  5   273.85
  30      1.31273706    -0.84312639  -268.10852108    -0.00000000    -0.00000000  0.15D-17  0.54D-18  6  6   283.88
  31      1.31273706    -0.84312639  -268.10852108    -0.00000000    -0.00000000  0.35D-18  0.10D-18  6  2   293.99

 Norm of t1 vector:      0.13871487      S-energy:    -0.00282104      T1 diagnostic:  0.01616952
                                                                       D1 diagnostic:  0.06283739
 Norm of t2 vector:      0.54175202      P-energy:    -0.84030535
                                         Alpha-Beta:  -0.66485281
                                         Alpha-Alpha: -0.09147695
                                         Beta-Beta:   -0.08397559

 Spin contamination <S**2-Sz**2-Sz>     0.00216986

 Memory could be reduced to 28.85 Mwords without degradation in triples
 

 RESULTS
 =======

  Reference energy                   -267.265394686716
  UCCSD singles energy                 -0.002821044322
  UCCSD pair energy                    -0.840305346172
  UCCSD correlation energy             -0.843126390493
  Triples (T) contribution             -0.024975021697
  Total correlation energy             -0.868101412190
 
  RHF-UCCSD energy                   -268.108521077209
  RHF-UCCSD[T] energy                -268.134832071708
  RHF-UCCSD-T energy                 -268.133074580488
 !RHF-UCCSD(T) energy                -268.133496098905

 Program statistics:

 Available memory in ccsd:               999997692
 Min. memory needed in ccsd:               7337057
 Max. memory used in ccsd:                10523002
 Max. memory used in cckext:              10867977 (31 integral passes)
 Max. memory used in cckint:              12633073 ( 1 integral passes)



 **********************************************************************************************************************************
 DATASETS  * FILE   NREC   LENGTH (MB)   RECORD NAMES
              1      18        3.17       500      610      700      900      950      970     1000      129      960     1100   
                                          VAR    BASINP    GEOM    SYMINP    ZMAT    AOBASIS   BASIS     P2S    ABASIS      S 
                                         1400     1410     1200     1210     1080     1600     1650     1700   
                                           T        V       H0       H01     AOSYM     SMH    MOLCAS    OPER   

              2       3        0.77       700     1000     2100   
                                         GEOM     BASIS     RHF  

 PROGRAMS   *        TOTAL  UCCSD(T)       RHF       INT
 CPU TIMES  *       364.92    362.20      1.39      1.22
 REAL TIME  *       375.97 SEC
 DISK USED  *         1.29 GB      
 SF USED    *       553.73 MB      
 GA USED    *         0.00 MB       (max)       0.00 MB       (current)
 **********************************************************************************************************************************

        UCCSD(T)        RHF-SCF 
   -268.13349610   -267.26539469
 **********************************************************************************************************************************
 Variable memory released
