
 Primary working directories    : /tmp/320938.48.gen6.q
 Secondary working directories  : /tmp/320938.48.gen6.q
 Wavefunction directory         : /home/vulcan/mel64643/wfu/
 Main file repository           : /tmp/320938.48.gen6.q/

 ARCHNAME  : Linux/x86_64
 FC        : /opt/intel/compilers_and_libraries_2016.1.150/linux/bin/intel64/ifort
 FCVERSION : 16.0.1
 BLASLIB   : -mkl
 id        : ccgc

 Nodes     nprocs
 n090         3
 Number of processes for MPI-2 version of Molpro:   nprocs(total)=    4   nprocs(compute)=    3   nprocs(helper)=    1
 ga_uses_ma=false, calling ma_init with nominal heap.
 GA-space will be limited to   8.0 MW (determined by -G option)

 Using customized tuning parameters: mindgm=10; mindgv=16; mindgc=4; mindgr=1; noblas=0; mincuda=1000; minvec=7
 default implementation of scratch files=sf  

 ***,Frequencies for min3
 memory,1000,m
 gthresh,energy=1.0d-10,orbital=1.0d-10,oneint=1.0d-16,twoint=1.0d-16,optgrad=1.0d-6,compress=1.0d-13
 geomtyp=xyz
 
  geometry = {
  12
  arbitrary comment
     C    1.776964391707    0.711398808326   -0.047331391796
     C    0.491811976407   -0.059992870174   -0.196493901896
     C    0.450332819107   -1.536294019674    0.101417522804
     O   -0.560767745493    0.727234937526    0.254453964104
     O   -1.837840335593    0.092269037726   -0.120319584325
     H    2.585634820649    0.213633789819   -0.611205020461
     H    1.661016859820    1.742181602928   -0.427200976818
     H    2.094816052840    0.773680316386    1.017479217564
     H   -0.505076070760   -1.983020123162   -0.220746828859
     H    1.281775126651   -2.047838036859   -0.416914246857
     H    0.560925463619   -1.719200425850    1.194534805561
     H   -1.987408644369    0.550650881420   -0.969131964910
  }
 
 basis=cc-pvdz
 {rhf;maxit,200}
 {uccsd(t);maxit,200}

 Variables initialized (661), CPU time= 0.00 sec
 Commands  initialized (458), CPU time= 0.00 sec, 486 directives.
 Default parameters read. Elapsed time= 0.06 sec

 Checking input...
 Passed
1


                                         ***  PROGRAM SYSTEM MOLPRO  ***
                         Copyright, University College Cardiff Consultants Limited, 2008

                                    Version 2010.1 linked May 16 2016 07:17:05


 **********************************************************************************************************************************
 LABEL *   Frequencies for min3                                                          
 Linux-4.4.3/n090(x86_64) 64 bit mpp version                                             DATE: 07-Mar-20          TIME: 01:14:05  
 **********************************************************************************************************************************

 SHA1:             9e8077add272b0f3cad6f7df79ec5211205f459d
 **********************************************************************************************************************************

 THRESHOLDS:

 ZERO    =  1.00D-12  ONEINT  =  1.00D-16  TWOINT  =  1.00D-16  PREFAC  =  1.00D-14  LOCALI  =  1.00D-09  EORDER  =  1.00D-04
 ENERGY  =  1.00D-10  ETEST   =  0.00D+00  EDENS   =  0.00D+00  THRDEDEF=  1.00D-06  GRADIENT=  1.00D-02  STEP    =  1.00D-03
 ORBITAL =  1.00D-10  CIVEC   =  1.00D-05  COEFF   =  1.00D-04  PRINTCI =  5.00D-02  PUNCHCI =  9.90D+01  OPTGRAD =  1.00D-06
 OPTENERG=  1.00D-06  OPTSTEP =  3.00D-04  THRGRAD =  1.00D-10  COMPRESS=  1.00D-13  VARMIN  =  1.00D-07  VARMAX  =  1.00D-03
 THRDOUB =  0.00D+00  THRDIV  =  1.00D-05  THRRED  =  1.00D-07  THRPSP  =  1.00D+00  THRDC   =  1.00D-10  THRCS   =  1.00D-10
 THRNRM  =  1.00D-08  THREQ   =  0.00D+00  THRDE   =  1.00D+00  THRREF  =  1.00D-05  SPARFAC =  1.00D+00  THRDLP  =  1.00D-07
 THRDIA  =  1.00D-10  THRDLS  =  1.00D-07  THRGPS  =  0.00D+00  THRKEX  =  0.00D+00  THRDIS  =  2.00D-01  THRVAR  =  1.00D-10
 THRLOC  =  1.00D-06  THRGAP  =  1.00D-06  THRLOCT = -1.00D+00  THRGAPT = -1.00D+00  THRORB  =  1.00D-06  THRMLTP =  0.00D+00
 THRCPQCI=  1.00D-10  KEXTA   =  0.00D+00  THRCOARS=  0.00D+00  SYMTOL  =  1.00D-06  GRADTOL =  1.00D-06  THROVL  =  1.00D-08
 THRORTH =  1.00D-08  GRID    =  1.00D-06  GRIDMAX =  1.00D-03  DTMAX   =  0.00D+00

 SETTING GEOMTYP        =    XYZ

 Variable memory set to 1000000000 words,  buffer space   230000 words

 SETTING BASIS          =    CC-PVDZ


 Recomputing integrals since basis changed


 Using spherical harmonics

 Library entry C      S cc-pVDZ              selected for orbital group  1
 Library entry C      P cc-pVDZ              selected for orbital group  1
 Library entry C      D cc-pVDZ              selected for orbital group  1
 Library entry O      S cc-pVDZ              selected for orbital group  2
 Library entry O      P cc-pVDZ              selected for orbital group  2
 Library entry O      D cc-pVDZ              selected for orbital group  2
 Library entry H      S cc-pVDZ              selected for orbital group  3
 Library entry H      P cc-pVDZ              selected for orbital group  3

1PROGRAM * SEWARD (Integral evaluation for generally contracted gaussian basis sets)     Author: Roland Lindh, 1990

 Geometry written to block  1 of record 700


 Point group  C1  



 ATOMIC COORDINATES

 NR  ATOM    CHARGE       X              Y              Z

   1  C       6.00    3.357976046    1.344348918   -0.089443368
   2  C       6.00    0.929389944   -0.113370094   -0.371319661
   3  C       6.00    0.851005696   -2.903174955    0.191651343
   4  O       8.00   -1.059697462    1.374274865    0.480848305
   5  O       8.00   -3.473014908    0.174363212   -0.227371063
   6  H       1.00    4.886141687    0.403709355   -1.155010099
   7  H       1.00    3.138866965    3.292246101   -0.807292849
   8  H       1.00    3.958628636    1.462043911    1.922757066
   9  H       1.00   -0.954455449   -3.747364946   -0.417151051
  10  H       1.00    2.422203951   -3.869853051   -0.787853747
  11  H       1.00    1.059995506   -3.248817970    2.257343637
  12  H       1.00   -3.755658049    1.040579360   -1.831393999

 Bond lengths in Bohr (Angstrom)

 1-2  2.846476668  1-6  2.086989572  1-7  2.087491342  1-8  2.103232329  2-3  2.847119878
     ( 1.506290578)     ( 1.104387317)     ( 1.104652842)     ( 1.112982614)     ( 1.506630951)

  2- 4  2.625975338   3- 9  2.083983456   3-10  2.088674393   3-11  2.104811271   4- 5  2.786658167
       ( 1.389606300)       ( 1.102796549)       ( 1.105278886)       ( 1.113818154)       ( 1.474635991)

  5-12  1.844751241
       ( 0.976200313)

 Bond angles

  1-2-3  120.37866573   1-2-4  108.90555081   2-1-6  110.08153684   2-1-7  110.74815449

  2- 1- 8  111.53419675   2- 3- 9  111.28559406   2- 3-10  109.88069482   2- 3-11  110.62406696

  2- 4- 5  109.24302671   3- 2- 4  118.03986083   4- 5-12   98.71285098   6- 1- 7  108.77518492

  6- 1- 8  107.73310322   7- 1- 8  107.86386592   9- 3-10  109.10070290   9- 3-11  107.83064547

 10- 3-11  108.03214369

 NUCLEAR CHARGE:                   41
 NUMBER OF PRIMITIVE AOS:         184
 NUMBER OF SYMMETRY AOS:          179
 NUMBER OF CONTRACTIONS:          105   ( 105A   )
 NUMBER OF CORE ORBITALS:           5   (   5A   )
 NUMBER OF VALENCE ORBITALS:       27   (  27A   )


 NUCLEAR REPULSION ENERGY  183.21751346


 Eigenvalues of metric

         1 0.345E-02 0.435E-02 0.105E-01 0.141E-01 0.182E-01 0.214E-01 0.331E-01 0.345E-01


 Contracted 2-electron integrals neglected if value below      1.0D-16
 AO integral compression algorithm  1   Integral accuracy      1.0D-16

     127.402 MB (compressed) written to integral file ( 93.4%)

     Node minimum: 34.341 MB, node maximum: 56.623 MB


 NUMBER OF SORTED TWO-ELECTRON INTEGRALS:    5164320.     BUFFER LENGTH:  32768
 NUMBER OF SEGMENTS:   1  SEGMENT LENGTH:    5164320      RECORD LENGTH: 524288

 Memory used in sort:       5.72 MW

 SORT1 READ    17075251. AND WROTE     5135927. INTEGRALS IN     15 RECORDS. CPU TIME:     0.29 SEC, REAL TIME:     0.34 SEC
 SORT2 READ    15396699. AND WROTE    15487395. INTEGRALS IN    393 RECORDS. CPU TIME:     0.08 SEC, REAL TIME:     0.13 SEC

 Node minimum:     5160610.  Node maximum:     5164320. integrals

 OPERATOR DM      FOR CENTER  0  COORDINATES:    0.000000    0.000000    0.000000


 **********************************************************************************************************************************
 DATASETS  * FILE   NREC   LENGTH (MB)   RECORD NAMES
              1      18        3.17       500      610      700      900      950      970     1000      129      960     1100   
                                          VAR    BASINP    GEOM    SYMINP    ZMAT    AOBASIS   BASIS     P2S    ABASIS      S 
                                         1400     1410     1200     1210     1080     1600     1650     1700   
                                           T        V       H0       H01     AOSYM     SMH    MOLCAS    OPER   

 PROGRAMS   *        TOTAL       INT
 CPU TIMES  *         1.11      1.04
 REAL TIME  *         1.55 SEC
 DISK USED  *       318.33 MB      
 GA USED    *         0.00 MB       (max)       0.00 MB       (current)
 **********************************************************************************************************************************

1PROGRAM * RHF-SCF (OPEN SHELL)       Authors: W. Meyer, H.-J. Werner


 NUMBER OF ELECTRONS:      21+   20-    SPACE SYMMETRY=1    SPIN SYMMETRY: Doublet 
 CONVERGENCE THRESHOLDS:    1.00E-10 (Density)    1.00E-11 (Energy)
 MAX. NUMBER OF ITERATIONS:      200
 INTERPOLATION TYPE:            DIIS
 INTERPOLATION STEPS:              2 (START)      1 (STEP)
 LEVEL SHIFTS:                 -0.30 (CLOSED)  0.00 (OPEN) 



 Orbital guess generated from atomic densities. Full valence occupancy:   32

 Molecular orbital dump at record        2100.2

 ITERATION    DDIFF          GRAD             ENERGY        2-EL.EN.            DIPOLE MOMENTS         DIIS
    1      0.000D+00      0.000D+00      -267.17820058    555.814181    0.56866    0.04926   -0.75214    0
    2      0.000D+00      0.617D-02      -267.24887997    555.734040    0.41403   -0.13122   -0.60057    1
    3      0.927D-02      0.214D-02      -267.26104747    555.652208    0.39398   -0.05944   -0.62780    2
    4      0.336D-02      0.912D-03      -267.26464974    555.804102    0.37961   -0.09963   -0.64397    3
    5      0.186D-02      0.363D-03      -267.26521774    555.775395    0.38227   -0.09315   -0.63688    4
    6      0.792D-03      0.110D-03      -267.26529400    555.761587    0.38058   -0.09296   -0.63958    5
    7      0.277D-03      0.510D-04      -267.26531407    555.758581    0.37991   -0.09270   -0.63906    6
    8      0.143D-03      0.272D-04      -267.26532011    555.756620    0.38020   -0.09282   -0.63926    7
    9      0.923D-04      0.115D-04      -267.26532102    555.756940    0.38039   -0.09278   -0.63902    8
   10      0.366D-04      0.500D-05      -267.26532118    555.757552    0.38065   -0.09279   -0.63909    9
   11      0.146D-04      0.196D-05      -267.26532121    555.757394    0.38070   -0.09278   -0.63909    9
   12      0.650D-05      0.670D-06      -267.26532121    555.757529    0.38072   -0.09278   -0.63909    9
   13      0.227D-05      0.226D-06      -267.26532121    555.757445    0.38072   -0.09278   -0.63909    9
   14      0.631D-06      0.754D-07      -267.26532121    555.757454    0.38072   -0.09279   -0.63909    9
   15      0.192D-06      0.298D-07      -267.26532121    555.757449    0.38072   -0.09279   -0.63909    9
   16      0.818D-07      0.143D-07      -267.26532121    555.757451    0.38072   -0.09279   -0.63909    9
   17      0.369D-07      0.742D-08      -267.26532121    555.757451    0.38072   -0.09279   -0.63909    9
   18      0.219D-07      0.340D-08      -267.26532121    555.757451    0.38072   -0.09279   -0.63909    9
   19      0.114D-07      0.132D-08      -267.26532121    555.757451    0.38072   -0.09279   -0.63909    9
   20      0.443D-08      0.561D-09      -267.26532121    555.757451    0.38072   -0.09279   -0.63909    9
   21      0.164D-08      0.283D-09      -267.26532121    555.757451    0.38072   -0.09279   -0.63909    9
   22      0.744D-09      0.160D-09      -267.26532121    555.757451    0.38072   -0.09279   -0.63909    9
   23      0.442D-09      0.788D-10      -267.26532121    555.757451    0.38072   -0.09279   -0.63909    9
   24      0.261D-09      0.313D-10      -267.26532121    555.757451    0.38072   -0.09279   -0.63909    9
   25      0.922D-10      0.128D-10      -267.26532121    555.757451    0.38072   -0.09279   -0.63909    0

 Final alpha occupancy:  21
 Final beta  occupancy:  20

 !RHF STATE 1.1 Energy               -267.265321210377
 Nuclear energy                       183.21751346
 One-electron energy                 -728.36156024
 Two-electron energy                  277.87872557
 Virial quotient                       -1.00156045
 !RHF STATE 1.1 Dipole moment           0.38071971    -0.09278574    -0.63908734
 Dipole moment /Debye                   0.96762960    -0.23582237    -1.62429160

 Orbital energies:

         1.1          2.1          3.1          4.1          5.1          6.1          7.1          8.1          9.1         10.1
    -20.630429   -20.628975   -11.279257   -11.237687   -11.232200    -1.469999    -1.240376    -1.023201    -0.945407    -0.768454

        11.1         12.1         13.1         14.1         15.1         16.1         17.1         18.1         19.1         20.1
     -0.704266    -0.642986    -0.626745    -0.588784    -0.545090    -0.543315    -0.539156    -0.516863    -0.492998    -0.469727

        21.1         22.1         23.1
     -0.352278     0.181139     0.183526


 **********************************************************************************************************************************
 DATASETS  * FILE   NREC   LENGTH (MB)   RECORD NAMES
              1      18        3.17       500      610      700      900      950      970     1000      129      960     1100   
                                          VAR    BASINP    GEOM    SYMINP    ZMAT    AOBASIS   BASIS     P2S    ABASIS      S 
                                         1400     1410     1200     1210     1080     1600     1650     1700   
                                           T        V       H0       H01     AOSYM     SMH    MOLCAS    OPER   

              2       3        0.77       700     1000     2100   
                                         GEOM     BASIS     RHF  

 PROGRAMS   *        TOTAL       RHF       INT
 CPU TIMES  *         2.48      1.37      1.04
 REAL TIME  *         3.48 SEC
 DISK USED  *       334.90 MB      
 SF USED    *         0.04 MB      
 GA USED    *         0.00 MB       (max)       0.00 MB       (current)
 **********************************************************************************************************************************


1PROGRAM * CCSD (Unrestricted open-shell coupled cluster)     Authors: C. Hampel, H.-J. Werner, 1991, M. Deegan, P.J. Knowles, 1992


 Convergence thresholds:  THRVAR = 1.00D-08  THRDEN = 1.00D-10

 CCSD(T)     terms to be evaluated (factor= 1.000)


 Number of core orbitals:           5 (   5 )
 Number of closed-shell orbitals:  15 (  15 )
 Number of active  orbitals:        1 (   1 )
 Number of external orbitals:      84 (  84 )

 Memory could be reduced to 24.91 Mwords without degradation in triples

 Number of N-1 electron functions:              31
 Number of N-2 electron functions:             465
 Number of singly external CSFs:              2635
 Number of doubly external CSFs:           2537250
 Total number of CSFs:                     2539885

 Molecular orbitals read from record     2100.2  Type=RHF/CANONICAL (state 1.1)

 Integral transformation finished. Total CPU:   0.72 sec, npass=  1  Memory used:  12.63 MW

 Starting RMP2 calculation

 ITER.      SQ.NORM     CORR.ENERGY   TOTAL ENERGY   ENERGY CHANGE        DEN1      VAR(S)    VAR(P)  DIIS     TIME
   1      1.24307227    -0.78644714  -268.05176835    -0.78644714    -0.00305037  0.20D-04  0.11D-02  1  1     0.98
   2      1.24571421    -0.78973676  -268.05505797    -0.00328961    -0.00000474  0.54D-06  0.19D-05  2  2     1.22
   3      1.24577975    -0.78977881  -268.05510002    -0.00004205    -0.00000003  0.16D-07  0.68D-08  3  3     1.48
   4      1.24578070    -0.78977881  -268.05510002    -0.00000000    -0.00000000  0.27D-09  0.38D-10  4  4     1.76
   5      1.24578078    -0.78977884  -268.05510005    -0.00000003    -0.00000000  0.25D-11  0.65D-12  5  5     2.07
   6      1.24578080    -0.78977885  -268.05510006    -0.00000001    -0.00000000  0.28D-13  0.87D-14  6  6     2.40
   7      1.24578080    -0.78977885  -268.05510006     0.00000000    -0.00000000  0.47D-15  0.12D-15  6  1     2.73
   8      1.24578080    -0.78977885  -268.05510006     0.00000000    -0.00000000  0.60D-17  0.13D-17  6  2     3.06

 Norm of t1 vector:      0.03893005      S-energy:    -0.00227152      T1 diagnostic:  0.00055014
 Norm of t2 vector:      0.49423198      P-energy:    -0.78750733
                                         Alpha-Beta:  -0.59346881
                                         Alpha-Alpha: -0.10095035
                                         Beta-Beta:   -0.09308817

 Spin contamination <S**2-Sz**2-Sz>     0.00104002
  Reference energy                   -267.265321210376
  RHF-RMP2 correlation energy          -0.789778849978
 !RHF-RMP2 energy                    -268.055100060353

 Starting UCCSD calculation

 ITER.      SQ.NORM     CORR.ENERGY   TOTAL ENERGY   ENERGY CHANGE        DEN1      VAR(S)    VAR(P)  DIIS     TIME
   1      1.26283638    -0.80910119  -268.07442240    -0.80910119    -0.02516232  0.38D-02  0.59D-02  1  1     7.80
   2      1.29161815    -0.83651598  -268.10183719    -0.02741479    -0.00201234  0.22D-03  0.66D-03  2  2    12.52
   3      1.30156471    -0.84101632  -268.10633753    -0.00450033    -0.00032481  0.19D-03  0.56D-04  3  3    17.28
   4      1.30648112    -0.84249434  -268.10781555    -0.00147802    -0.00007212  0.43D-04  0.14D-04  4  4    22.05
   5      1.30921192    -0.84288255  -268.10820376    -0.00038821    -0.00002368  0.19D-04  0.32D-05  5  5    26.87
   6      1.31115203    -0.84308711  -268.10840832    -0.00020456    -0.00000646  0.42D-05  0.12D-05  6  6    31.71
   7      1.31210194    -0.84314592  -268.10846713    -0.00005881    -0.00000208  0.14D-05  0.37D-06  6  2    36.58
   8      1.31254379    -0.84318862  -268.10850983    -0.00004270    -0.00000065  0.45D-06  0.11D-06  6  1    41.44
   9      1.31272903    -0.84319320  -268.10851441    -0.00000459    -0.00000022  0.15D-06  0.35D-07  6  4    46.28
  10      1.31279215    -0.84319613  -268.10851734    -0.00000293    -0.00000005  0.35D-07  0.95D-08  6  3    51.11
  11      1.31282163    -0.84319487  -268.10851608     0.00000126    -0.00000002  0.13D-07  0.28D-08  6  5    55.96
  12      1.31283200    -0.84319461  -268.10851582     0.00000026    -0.00000000  0.26D-08  0.95D-09  6  6    60.79
  13      1.31283085    -0.84319369  -268.10851490     0.00000092    -0.00000000  0.96D-09  0.28D-09  6  2    65.64
  14      1.31282565    -0.84319285  -268.10851406     0.00000084    -0.00000000  0.21D-09  0.67D-10  6  1    70.47
  15      1.31282157    -0.84319226  -268.10851347     0.00000059    -0.00000000  0.78D-10  0.19D-10  6  4    75.31
  16      1.31281839    -0.84319188  -268.10851309     0.00000038    -0.00000000  0.28D-10  0.63D-11  6  3    80.17
  17      1.31281619    -0.84319164  -268.10851285     0.00000024    -0.00000000  0.10D-10  0.24D-11  6  5    85.01
  18      1.31281528    -0.84319158  -268.10851279     0.00000006    -0.00000000  0.41D-11  0.87D-12  6  6    89.86
  19      1.31281467    -0.84319154  -268.10851275     0.00000003    -0.00000000  0.16D-11  0.37D-12  6  2    94.69
  20      1.31281435    -0.84319153  -268.10851274     0.00000001    -0.00000000  0.60D-12  0.13D-12  6  1    99.54
  21      1.31281419    -0.84319152  -268.10851273     0.00000001    -0.00000000  0.28D-12  0.58D-13  6  4   104.37
  22      1.31281407    -0.84319151  -268.10851272     0.00000001    -0.00000000  0.74D-13  0.21D-13  6  3   109.21
  23      1.31281401    -0.84319151  -268.10851272     0.00000000    -0.00000000  0.21D-13  0.63D-14  6  5   114.07
  24      1.31281400    -0.84319151  -268.10851272    -0.00000000    -0.00000000  0.67D-14  0.22D-14  6  6   118.93
  25      1.31281401    -0.84319151  -268.10851272    -0.00000000    -0.00000000  0.21D-14  0.52D-15  6  2   123.79
  26      1.31281401    -0.84319151  -268.10851272    -0.00000000    -0.00000000  0.77D-15  0.15D-15  6  1   130.11
  27      1.31281402    -0.84319151  -268.10851272    -0.00000000    -0.00000000  0.20D-15  0.62D-16  6  3   136.43
  28      1.31281403    -0.84319151  -268.10851272    -0.00000000    -0.00000000  0.30D-16  0.11D-16  6  4   142.75
  29      1.31281403    -0.84319151  -268.10851272    -0.00000000    -0.00000000  0.70D-17  0.29D-17  6  5   149.08
  30      1.31281403    -0.84319151  -268.10851272    -0.00000000    -0.00000000  0.15D-17  0.54D-18  6  6   154.34
  31      1.31281403    -0.84319151  -268.10851272    -0.00000000    -0.00000000  0.35D-18  0.10D-18  6  2   159.20

 Norm of t1 vector:      0.13874543      S-energy:    -0.00282101      T1 diagnostic:  0.01617348
                                                                       D1 diagnostic:  0.06282446
 Norm of t2 vector:      0.54181523      P-energy:    -0.84037050
                                         Alpha-Beta:  -0.66491968
                                         Alpha-Alpha: -0.09147749
                                         Beta-Beta:   -0.08397333

 Spin contamination <S**2-Sz**2-Sz>     0.00217120

 Memory could be reduced to 28.85 Mwords without degradation in triples
 

 RESULTS
 =======

  Reference energy                   -267.265321210376
  UCCSD singles energy                 -0.002821012244
  UCCSD pair energy                    -0.840370502359
  UCCSD correlation energy             -0.843191514603
  Triples (T) contribution             -0.024980489478
  Total correlation energy             -0.868172004081
 
  RHF-UCCSD energy                   -268.108512724979
  RHF-UCCSD[T] energy                -268.134830033903
  RHF-UCCSD-T energy                 -268.133071296070
 !RHF-UCCSD(T) energy                -268.133493214457

 Program statistics:

 Available memory in ccsd:               999997692
 Min. memory needed in ccsd:               7337057
 Max. memory used in ccsd:                10523002
 Max. memory used in cckext:              10867977 (31 integral passes)
 Max. memory used in cckint:              12633073 ( 1 integral passes)



 **********************************************************************************************************************************
 DATASETS  * FILE   NREC   LENGTH (MB)   RECORD NAMES
              1      18        3.17       500      610      700      900      950      970     1000      129      960     1100   
                                          VAR    BASINP    GEOM    SYMINP    ZMAT    AOBASIS   BASIS     P2S    ABASIS      S 
                                         1400     1410     1200     1210     1080     1600     1650     1700   
                                           T        V       H0       H01     AOSYM     SMH    MOLCAS    OPER   

              2       3        0.77       700     1000     2100   
                                         GEOM     BASIS     RHF  

 PROGRAMS   *        TOTAL  UCCSD(T)       RHF       INT
 CPU TIMES  *       198.85    196.37      1.37      1.04
 REAL TIME  *       209.06 SEC
 DISK USED  *         1.30 GB      
 SF USED    *       553.73 MB      
 GA USED    *         0.00 MB       (max)       0.00 MB       (current)
 **********************************************************************************************************************************

        UCCSD(T)        RHF-SCF 
   -268.13349321   -267.26532121
 **********************************************************************************************************************************
 Variable memory released
