
 Primary working directories    : /tmp/320938.532.gen4.q
 Secondary working directories  : /tmp/320938.532.gen4.q
 Wavefunction directory         : /home/vulcan/mel64643/wfu/
 Main file repository           : /tmp/320938.532.gen4.q/

 ARCHNAME  : Linux/x86_64
 FC        : /opt/intel/compilers_and_libraries_2016.1.150/linux/bin/intel64/ifort
 FCVERSION : 16.0.1
 BLASLIB   : -mkl
 id        : ccgc

 Nodes     nprocs
 n059         3
 Number of processes for MPI-2 version of Molpro:   nprocs(total)=    4   nprocs(compute)=    3   nprocs(helper)=    1
 ga_uses_ma=false, calling ma_init with nominal heap.
 GA-space will be limited to   8.0 MW (determined by -G option)

 Using customized tuning parameters: mindgm=10; mindgv=16; mindgc=4; mindgr=1; noblas=0; mincuda=1000; minvec=7
 default implementation of scratch files=sf  

 ***,Frequencies for min3
 memory,1000,m
 gthresh,energy=1.0d-10,orbital=1.0d-10,oneint=1.0d-16,twoint=1.0d-16,optgrad=1.0d-6,compress=1.0d-13
 geomtyp=xyz
 
  geometry = {
  12
  arbitrary comment
     C    1.776964391707    0.711398808326   -0.047331391796
     C    0.492496239012   -0.059989938328   -0.196517226001
     C    0.450181122091   -1.536288650095    0.101408593848
     O   -0.560928297120    0.727235861623    0.254452285543
     O   -1.838007463010    0.092259241395   -0.120492925900
     H    2.585191855754    0.213718007873   -0.611575320520
     H    1.660678236802    1.742241476817   -0.426847719803
     H    2.095215674737    0.773504628335    1.017452235505
     H   -0.505330437595   -1.982980711259   -0.219879132226
     H    1.281418852041   -2.047777430009   -0.416977422042
     H    0.561401529406   -1.719395588664    1.194895525667
     H   -1.988032765707    0.550819586733   -0.967091453101
  }
 
 basis=cc-pvdz
 {rhf;maxit,200}
 {uccsd(t);maxit,200}

 Variables initialized (661), CPU time= 0.00 sec
 Commands  initialized (458), CPU time= 0.00 sec, 486 directives.
 Default parameters read. Elapsed time= 0.05 sec

 Checking input...
 Passed
1


                                         ***  PROGRAM SYSTEM MOLPRO  ***
                         Copyright, University College Cardiff Consultants Limited, 2008

                                    Version 2010.1 linked May 16 2016 07:17:05


 **********************************************************************************************************************************
 LABEL *   Frequencies for min3                                                          
 Linux-4.4.3/n059(x86_64) 64 bit mpp version                                             DATE: 07-Mar-20          TIME: 04:05:50  
 **********************************************************************************************************************************

 SHA1:             9e8077add272b0f3cad6f7df79ec5211205f459d
 **********************************************************************************************************************************

 THRESHOLDS:

 ZERO    =  1.00D-12  ONEINT  =  1.00D-16  TWOINT  =  1.00D-16  PREFAC  =  1.00D-14  LOCALI  =  1.00D-09  EORDER  =  1.00D-04
 ENERGY  =  1.00D-10  ETEST   =  0.00D+00  EDENS   =  0.00D+00  THRDEDEF=  1.00D-06  GRADIENT=  1.00D-02  STEP    =  1.00D-03
 ORBITAL =  1.00D-10  CIVEC   =  1.00D-05  COEFF   =  1.00D-04  PRINTCI =  5.00D-02  PUNCHCI =  9.90D+01  OPTGRAD =  1.00D-06
 OPTENERG=  1.00D-06  OPTSTEP =  3.00D-04  THRGRAD =  1.00D-10  COMPRESS=  1.00D-13  VARMIN  =  1.00D-07  VARMAX  =  1.00D-03
 THRDOUB =  0.00D+00  THRDIV  =  1.00D-05  THRRED  =  1.00D-07  THRPSP  =  1.00D+00  THRDC   =  1.00D-10  THRCS   =  1.00D-10
 THRNRM  =  1.00D-08  THREQ   =  0.00D+00  THRDE   =  1.00D+00  THRREF  =  1.00D-05  SPARFAC =  1.00D+00  THRDLP  =  1.00D-07
 THRDIA  =  1.00D-10  THRDLS  =  1.00D-07  THRGPS  =  0.00D+00  THRKEX  =  0.00D+00  THRDIS  =  2.00D-01  THRVAR  =  1.00D-10
 THRLOC  =  1.00D-06  THRGAP  =  1.00D-06  THRLOCT = -1.00D+00  THRGAPT = -1.00D+00  THRORB  =  1.00D-06  THRMLTP =  0.00D+00
 THRCPQCI=  1.00D-10  KEXTA   =  0.00D+00  THRCOARS=  0.00D+00  SYMTOL  =  1.00D-06  GRADTOL =  1.00D-06  THROVL  =  1.00D-08
 THRORTH =  1.00D-08  GRID    =  1.00D-06  GRIDMAX =  1.00D-03  DTMAX   =  0.00D+00

 SETTING GEOMTYP        =    XYZ

 Variable memory set to 1000000000 words,  buffer space   230000 words

 SETTING BASIS          =    CC-PVDZ


 Recomputing integrals since basis changed


 Using spherical harmonics

 Library entry C      S cc-pVDZ              selected for orbital group  1
 Library entry C      P cc-pVDZ              selected for orbital group  1
 Library entry C      D cc-pVDZ              selected for orbital group  1
 Library entry O      S cc-pVDZ              selected for orbital group  2
 Library entry O      P cc-pVDZ              selected for orbital group  2
 Library entry O      D cc-pVDZ              selected for orbital group  2
 Library entry H      S cc-pVDZ              selected for orbital group  3
 Library entry H      P cc-pVDZ              selected for orbital group  3

1PROGRAM * SEWARD (Integral evaluation for generally contracted gaussian basis sets)     Author: Roland Lindh, 1990

 Geometry written to block  1 of record 700


 Point group  C1  



 ATOMIC COORDINATES

 NR  ATOM    CHARGE       X              Y              Z

   1  C       6.00    3.357976046    1.344348918   -0.089443368
   2  C       6.00    0.930683012   -0.113364554   -0.371363737
   3  C       6.00    0.850719030   -2.903164807    0.191634470
   4  O       8.00   -1.060000861    1.374276611    0.480845133
   5  O       8.00   -3.473330733    0.174344699   -0.227698631
   6  H       1.00    4.885304605    0.403868504   -1.155709865
   7  H       1.00    3.138227060    3.292359246   -0.806625290
   8  H       1.00    3.959383812    1.461711909    1.922706077
   9  H       1.00   -0.954936133   -3.747290468   -0.415511342
  10  H       1.00    2.421530690   -3.869738521   -0.787973131
  11  H       1.00    1.060895140   -3.249186774    2.258025299
  12  H       1.00   -3.756837467    1.040898167   -1.827537990

 Bond lengths in Bohr (Angstrom)

 1-2  2.845375042  1-6  2.086662449  1-7  2.087434733  1-8  2.103380793  2-3  2.847164673
     ( 1.505707623)     ( 1.104214211)     ( 1.104622886)     ( 1.113061178)     ( 1.506654655)

  2- 4  2.627195935   3- 9  2.083642180   3-10  2.088383361   3-11  2.105677150   4- 5  2.786760113
       ( 1.390252212)       ( 1.102615954)       ( 1.105124879)       ( 1.114276357)       ( 1.474689939)

  5-12  1.841406245
       ( 0.974430217)

 Bond angles

  1-2-3  120.42130611   1-2-4  108.91429885   2-1-6  110.05168224   2-1-7  110.74725208

  2- 1- 8  111.54800328   2- 3- 9  111.32622289   2- 3-10  109.85424793   2- 3-11  110.62588959

  2- 4- 5  109.26240100   3- 2- 4  117.99628205   4- 5-12   98.71968516   6- 1- 7  108.78987922

  6- 1- 8  107.73978232   7- 1- 8  107.86037476   9- 3-10  109.12507790   9- 3-11  107.81081847

 10- 3-11  108.01040011

 NUCLEAR CHARGE:                   41
 NUMBER OF PRIMITIVE AOS:         184
 NUMBER OF SYMMETRY AOS:          179
 NUMBER OF CONTRACTIONS:          105   ( 105A   )
 NUMBER OF CORE ORBITALS:           5   (   5A   )
 NUMBER OF VALENCE ORBITALS:       27   (  27A   )


 NUCLEAR REPULSION ENERGY  183.21703395


 Eigenvalues of metric

         1 0.345E-02 0.435E-02 0.105E-01 0.141E-01 0.182E-01 0.214E-01 0.331E-01 0.345E-01


 Contracted 2-electron integrals neglected if value below      1.0D-16
 AO integral compression algorithm  1   Integral accuracy      1.0D-16

     127.402 MB (compressed) written to integral file ( 93.4%)

     Node minimum: 40.632 MB, node maximum: 44.827 MB


 NUMBER OF SORTED TWO-ELECTRON INTEGRALS:    5164320.     BUFFER LENGTH:  32768
 NUMBER OF SEGMENTS:   1  SEGMENT LENGTH:    5164320      RECORD LENGTH: 524288

 Memory used in sort:       5.72 MW

 SORT1 READ    17075251. AND WROTE     5135934. INTEGRALS IN     15 RECORDS. CPU TIME:     0.21 SEC, REAL TIME:     0.26 SEC
 SORT2 READ    15396709. AND WROTE    15487395. INTEGRALS IN    465 RECORDS. CPU TIME:     0.07 SEC, REAL TIME:     0.11 SEC

 Node minimum:     5160610.  Node maximum:     5164320. integrals

 OPERATOR DM      FOR CENTER  0  COORDINATES:    0.000000    0.000000    0.000000


 **********************************************************************************************************************************
 DATASETS  * FILE   NREC   LENGTH (MB)   RECORD NAMES
              1      18        3.17       500      610      700      900      950      970     1000      129      960     1100   
                                          VAR    BASINP    GEOM    SYMINP    ZMAT    AOBASIS   BASIS     P2S    ABASIS      S 
                                         1400     1410     1200     1210     1080     1600     1650     1700   
                                           T        V       H0       H01     AOSYM     SMH    MOLCAS    OPER   

 PROGRAMS   *        TOTAL       INT
 CPU TIMES  *         0.93      0.89
 REAL TIME  *         1.38 SEC
 DISK USED  *       306.53 MB      
 GA USED    *         0.00 MB       (max)       0.00 MB       (current)
 **********************************************************************************************************************************

1PROGRAM * RHF-SCF (OPEN SHELL)       Authors: W. Meyer, H.-J. Werner


 NUMBER OF ELECTRONS:      21+   20-    SPACE SYMMETRY=1    SPIN SYMMETRY: Doublet 
 CONVERGENCE THRESHOLDS:    1.00E-10 (Density)    1.00E-11 (Energy)
 MAX. NUMBER OF ITERATIONS:      200
 INTERPOLATION TYPE:            DIIS
 INTERPOLATION STEPS:              2 (START)      1 (STEP)
 LEVEL SHIFTS:                 -0.30 (CLOSED)  0.00 (OPEN) 



 Orbital guess generated from atomic densities. Full valence occupancy:   32

 Molecular orbital dump at record        2100.2

 ITERATION    DDIFF          GRAD             ENERGY        2-EL.EN.            DIPOLE MOMENTS         DIIS
    1      0.000D+00      0.000D+00      -267.17827265    555.810064    0.57115    0.04930   -0.74979    0
    2      0.000D+00      0.617D-02      -267.24895753    555.730129    0.41555   -0.13119   -0.59941    1
    3      0.927D-02      0.214D-02      -267.26112933    555.648423    0.39534   -0.05936   -0.62678    2
    4      0.336D-02      0.912D-03      -267.26473198    555.800635    0.38084   -0.09953   -0.64316    3
    5      0.186D-02      0.363D-03      -267.26529952    555.771968    0.38341   -0.09305   -0.63613    4
    6      0.792D-03      0.110D-03      -267.26537562    555.758224    0.38170   -0.09286   -0.63886    5
    7      0.277D-03      0.510D-04      -267.26539568    555.755215    0.38100   -0.09261   -0.63834    6
    8      0.143D-03      0.272D-04      -267.26540173    555.753270    0.38128   -0.09272   -0.63855    7
    9      0.923D-04      0.115D-04      -267.26540264    555.753583    0.38147   -0.09268   -0.63831    8
   10      0.365D-04      0.500D-05      -267.26540280    555.754195    0.38173   -0.09269   -0.63838    9
   11      0.146D-04      0.196D-05      -267.26540282    555.754037    0.38178   -0.09269   -0.63838    9
   12      0.650D-05      0.670D-06      -267.26540283    555.754171    0.38180   -0.09269   -0.63838    9
   13      0.227D-05      0.226D-06      -267.26540283    555.754087    0.38180   -0.09269   -0.63838    9
   14      0.632D-06      0.757D-07      -267.26540283    555.754096    0.38180   -0.09269   -0.63838    9
   15      0.193D-06      0.300D-07      -267.26540283    555.754091    0.38180   -0.09269   -0.63838    9
   16      0.823D-07      0.145D-07      -267.26540283    555.754093    0.38180   -0.09269   -0.63838    9
   17      0.373D-07      0.749D-08      -267.26540283    555.754093    0.38180   -0.09269   -0.63838    9
   18      0.222D-07      0.341D-08      -267.26540283    555.754093    0.38180   -0.09269   -0.63838    9
   19      0.114D-07      0.133D-08      -267.26540283    555.754093    0.38180   -0.09269   -0.63838    9
   20      0.444D-08      0.565D-09      -267.26540283    555.754093    0.38180   -0.09269   -0.63838    9
   21      0.165D-08      0.286D-09      -267.26540283    555.754093    0.38180   -0.09269   -0.63838    9
   22      0.751D-09      0.161D-09      -267.26540283    555.754093    0.38180   -0.09269   -0.63838    9
   23      0.445D-09      0.794D-10      -267.26540283    555.754093    0.38180   -0.09269   -0.63838    9
   24      0.263D-09      0.316D-10      -267.26540283    555.754093    0.38180   -0.09269   -0.63838    9
   25      0.931D-10      0.129D-10      -267.26540283    555.754093    0.38180   -0.09269   -0.63838    0

 Final alpha occupancy:  21
 Final beta  occupancy:  20

 !RHF STATE 1.1 Energy               -267.265402826899
 Nuclear energy                       183.21703395
 One-electron energy                 -728.35948337
 Two-electron energy                  277.87704659
 Virial quotient                       -1.00155084
 !RHF STATE 1.1 Dipole moment           0.38180055    -0.09268811    -0.63837546
 Dipole moment /Debye                   0.97037664    -0.23557426    -1.62248230

 Orbital energies:

         1.1          2.1          3.1          4.1          5.1          6.1          7.1          8.1          9.1         10.1
    -20.630385   -20.628771   -11.279298   -11.237699   -11.232240    -1.469969    -1.240527    -1.023336    -0.945496    -0.768422

        11.1         12.1         13.1         14.1         15.1         16.1         17.1         18.1         19.1         20.1
     -0.704491    -0.643024    -0.626689    -0.588853    -0.545073    -0.543320    -0.539177    -0.516974    -0.492927    -0.469846

        21.1         22.1         23.1
     -0.352357     0.181298     0.183601


 **********************************************************************************************************************************
 DATASETS  * FILE   NREC   LENGTH (MB)   RECORD NAMES
              1      18        3.17       500      610      700      900      950      970     1000      129      960     1100   
                                          VAR    BASINP    GEOM    SYMINP    ZMAT    AOBASIS   BASIS     P2S    ABASIS      S 
                                         1400     1410     1200     1210     1080     1600     1650     1700   
                                           T        V       H0       H01     AOSYM     SMH    MOLCAS    OPER   

              2       3        0.77       700     1000     2100   
                                         GEOM     BASIS     RHF  

 PROGRAMS   *        TOTAL       RHF       INT
 CPU TIMES  *         2.03      1.10      0.89
 REAL TIME  *         2.63 SEC
 DISK USED  *       323.10 MB      
 SF USED    *         0.04 MB      
 GA USED    *         0.00 MB       (max)       0.00 MB       (current)
 **********************************************************************************************************************************


1PROGRAM * CCSD (Unrestricted open-shell coupled cluster)     Authors: C. Hampel, H.-J. Werner, 1991, M. Deegan, P.J. Knowles, 1992


 Convergence thresholds:  THRVAR = 1.00D-08  THRDEN = 1.00D-10

 CCSD(T)     terms to be evaluated (factor= 1.000)


 Number of core orbitals:           5 (   5 )
 Number of closed-shell orbitals:  15 (  15 )
 Number of active  orbitals:        1 (   1 )
 Number of external orbitals:      84 (  84 )

 Memory could be reduced to 24.91 Mwords without degradation in triples

 Number of N-1 electron functions:              31
 Number of N-2 electron functions:             465
 Number of singly external CSFs:              2635
 Number of doubly external CSFs:           2537250
 Total number of CSFs:                     2539885

 Molecular orbitals read from record     2100.2  Type=RHF/CANONICAL (state 1.1)

 Integral transformation finished. Total CPU:   0.93 sec, npass=  1  Memory used:  12.63 MW

 Starting RMP2 calculation

 ITER.      SQ.NORM     CORR.ENERGY   TOTAL ENERGY   ENERGY CHANGE        DEN1      VAR(S)    VAR(P)  DIIS     TIME
   1      1.24302001    -0.78636905  -268.05177188    -0.78636905    -0.00304958  0.20D-04  0.11D-02  1  1     1.26
   2      1.24566111    -0.78965781  -268.05506064    -0.00328876    -0.00000474  0.54D-06  0.19D-05  2  2     1.56
   3      1.24572666    -0.78969987  -268.05510270    -0.00004206    -0.00000003  0.16D-07  0.68D-08  3  3     1.89
   4      1.24572761    -0.78969987  -268.05510270    -0.00000000    -0.00000000  0.27D-09  0.38D-10  4  4     2.24
   5      1.24572769    -0.78969991  -268.05510273    -0.00000003    -0.00000000  0.25D-11  0.65D-12  5  5     2.63
   6      1.24572770    -0.78969991  -268.05510274    -0.00000001    -0.00000000  0.28D-13  0.86D-14  6  6     3.04
   7      1.24572770    -0.78969991  -268.05510274     0.00000000    -0.00000000  0.47D-15  0.12D-15  6  1     3.46
   8      1.24572770    -0.78969991  -268.05510274     0.00000000    -0.00000000  0.59D-17  0.13D-17  6  2     3.88

 Norm of t1 vector:      0.03893549      S-energy:    -0.00227200      T1 diagnostic:  0.00055026
 Norm of t2 vector:      0.49417784      P-energy:    -0.78742791
                                         Alpha-Beta:  -0.59340876
                                         Alpha-Alpha: -0.10094038
                                         Beta-Beta:   -0.09307877

 Spin contamination <S**2-Sz**2-Sz>     0.00104040
  Reference energy                   -267.265402826896
  RHF-RMP2 correlation energy          -0.789699911436
 !RHF-RMP2 energy                    -268.055102738332

 Starting UCCSD calculation

 ITER.      SQ.NORM     CORR.ENERGY   TOTAL ENERGY   ENERGY CHANGE        DEN1      VAR(S)    VAR(P)  DIIS     TIME
   1      1.26278926    -0.80903742  -268.07444024    -0.80903742    -0.02515657  0.38D-02  0.59D-02  1  1     9.28
   2      1.29156199    -0.83644617  -268.10184899    -0.02740875    -0.00201146  0.22D-03  0.66D-03  2  2    14.68
   3      1.30150332    -0.84094403  -268.10634686    -0.00449787    -0.00032473  0.19D-03  0.56D-04  3  3    20.10
   4      1.30641697    -0.84242140  -268.10782422    -0.00147736    -0.00007209  0.43D-04  0.14D-04  4  4    25.49
   5      1.30914655    -0.84280953  -268.10821236    -0.00038814    -0.00002367  0.19D-04  0.32D-05  5  5    30.92
   6      1.31108453    -0.84301395  -268.10841678    -0.00020441    -0.00000645  0.42D-05  0.12D-05  6  6    36.38
   7      1.31203286    -0.84307270  -268.10847552    -0.00005875    -0.00000208  0.14D-05  0.37D-06  6  2    41.89
   8      1.31247362    -0.84311533  -268.10851816    -0.00004264    -0.00000065  0.45D-06  0.11D-06  6  1    47.38
   9      1.31265825    -0.84311990  -268.10852273    -0.00000457    -0.00000022  0.15D-06  0.35D-07  6  4    52.85
  10      1.31272125    -0.84312283  -268.10852566    -0.00000293    -0.00000005  0.35D-07  0.95D-08  6  3    58.36
  11      1.31275066    -0.84312156  -268.10852439     0.00000127    -0.00000002  0.13D-07  0.28D-08  6  5    63.86
  12      1.31276100    -0.84312129  -268.10852412     0.00000027    -0.00000000  0.26D-08  0.95D-09  6  6    69.40
  13      1.31275985    -0.84312038  -268.10852321     0.00000092    -0.00000000  0.96D-09  0.28D-09  6  2    74.90
  14      1.31275465    -0.84311954  -268.10852236     0.00000084    -0.00000000  0.21D-09  0.67D-10  6  1    80.36
  15      1.31275058    -0.84311895  -268.10852178     0.00000059    -0.00000000  0.78D-10  0.19D-10  6  4    85.84
  16      1.31274739    -0.84311857  -268.10852139     0.00000038    -0.00000000  0.28D-10  0.63D-11  6  3    91.43
  17      1.31274519    -0.84311833  -268.10852115     0.00000024    -0.00000000  0.10D-10  0.24D-11  6  5    96.95
  18      1.31274429    -0.84311827  -268.10852110     0.00000006    -0.00000000  0.41D-11  0.87D-12  6  6   102.41
  19      1.31274368    -0.84311823  -268.10852106     0.00000003    -0.00000000  0.16D-11  0.37D-12  6  2   111.99
  20      1.31274337    -0.84311822  -268.10852105     0.00000001    -0.00000000  0.60D-12  0.13D-12  6  1   117.48
  21      1.31274320    -0.84311821  -268.10852104     0.00000001    -0.00000000  0.28D-12  0.58D-13  6  4   122.97
  22      1.31274308    -0.84311820  -268.10852103     0.00000001    -0.00000000  0.73D-13  0.21D-13  6  3   128.49
  23      1.31274303    -0.84311820  -268.10852103     0.00000000    -0.00000000  0.21D-13  0.62D-14  6  5   133.98
  24      1.31274302    -0.84311820  -268.10852103    -0.00000000    -0.00000000  0.67D-14  0.22D-14  6  6   139.46
  25      1.31274302    -0.84311820  -268.10852103    -0.00000000    -0.00000000  0.21D-14  0.52D-15  6  2   144.94
  26      1.31274303    -0.84311820  -268.10852103    -0.00000000    -0.00000000  0.77D-15  0.15D-15  6  1   151.44
  27      1.31274304    -0.84311820  -268.10852103    -0.00000000    -0.00000000  0.20D-15  0.62D-16  6  3   157.92
  28      1.31274304    -0.84311820  -268.10852103    -0.00000000    -0.00000000  0.29D-16  0.11D-16  6  4   164.41
  29      1.31274305    -0.84311820  -268.10852103    -0.00000000    -0.00000000  0.70D-17  0.29D-17  6  5   170.69
  30      1.31274305    -0.84311820  -268.10852103    -0.00000000    -0.00000000  0.15D-17  0.54D-18  6  6   176.16
  31      1.31274305    -0.84311820  -268.10852103    -0.00000000    -0.00000000  0.35D-18  0.10D-18  6  2   181.64

 Norm of t1 vector:      0.13871236      S-energy:    -0.00282162      T1 diagnostic:  0.01616895
                                                                       D1 diagnostic:  0.06283569
 Norm of t2 vector:      0.54175818      P-energy:    -0.84029659
                                         Alpha-Beta:  -0.66485342
                                         Alpha-Alpha: -0.09147314
                                         Beta-Beta:   -0.08397003

 Spin contamination <S**2-Sz**2-Sz>     0.00216905

 Memory could be reduced to 28.85 Mwords without degradation in triples
 

 RESULTS
 =======

  Reference energy                   -267.265402826896
  UCCSD singles energy                 -0.002821618473
  UCCSD pair energy                    -0.840296586263
  UCCSD correlation energy             -0.843118204736
  Triples (T) contribution             -0.024974849902
  Total correlation energy             -0.868093054638
 
  RHF-UCCSD energy                   -268.108521031632
  RHF-UCCSD[T] energy                -268.134832430895
  RHF-UCCSD-T energy                 -268.133074036048
 !RHF-UCCSD(T) energy                -268.133495881534

 Program statistics:

 Available memory in ccsd:               999997692
 Min. memory needed in ccsd:               7337057
 Max. memory used in ccsd:                10523002
 Max. memory used in cckext:              10867977 (31 integral passes)
 Max. memory used in cckint:              12633073 ( 1 integral passes)



 **********************************************************************************************************************************
 DATASETS  * FILE   NREC   LENGTH (MB)   RECORD NAMES
              1      18        3.17       500      610      700      900      950      970     1000      129      960     1100   
                                          VAR    BASINP    GEOM    SYMINP    ZMAT    AOBASIS   BASIS     P2S    ABASIS      S 
                                         1400     1410     1200     1210     1080     1600     1650     1700   
                                           T        V       H0       H01     AOSYM     SMH    MOLCAS    OPER   

              2       3        0.77       700     1000     2100   
                                         GEOM     BASIS     RHF  

 PROGRAMS   *        TOTAL  UCCSD(T)       RHF       INT
 CPU TIMES  *       229.53    227.50      1.10      0.89
 REAL TIME  *       243.28 SEC
 DISK USED  *         1.29 GB      
 SF USED    *       553.73 MB      
 GA USED    *         0.00 MB       (max)       0.00 MB       (current)
 **********************************************************************************************************************************

        UCCSD(T)        RHF-SCF 
   -268.13349588   -267.26540283
 **********************************************************************************************************************************
 Variable memory released
