
 Primary working directories    : /tmp/320938.663.gen6.q
 Secondary working directories  : /tmp/320938.663.gen6.q
 Wavefunction directory         : /home/vulcan/mel64643/wfu/
 Main file repository           : /tmp/320938.663.gen6.q/

 ARCHNAME  : Linux/x86_64
 FC        : /opt/intel/compilers_and_libraries_2016.1.150/linux/bin/intel64/ifort
 FCVERSION : 16.0.1
 BLASLIB   : -mkl
 id        : ccgc

 Nodes     nprocs
 n081         3
 Number of processes for MPI-2 version of Molpro:   nprocs(total)=    4   nprocs(compute)=    3   nprocs(helper)=    1
 ga_uses_ma=false, calling ma_init with nominal heap.
 GA-space will be limited to   8.0 MW (determined by -G option)

 Using customized tuning parameters: mindgm=10; mindgv=16; mindgc=4; mindgr=1; noblas=0; mincuda=1000; minvec=7
 default implementation of scratch files=sf  

 ***,Frequencies for min3
 memory,1000,m
 gthresh,energy=1.0d-10,orbital=1.0d-10,oneint=1.0d-16,twoint=1.0d-16,optgrad=1.0d-6,compress=1.0d-13
 geomtyp=xyz
 
  geometry = {
  12
  arbitrary comment
     C    1.776964391707    0.711398808326   -0.047331391796
     C    0.491811976407   -0.059992870174   -0.196493901896
     C    0.450332819107   -1.536294019674    0.100990929623
     O   -0.560782022909    0.727304203846    0.254454026400
     O   -1.837824826465    0.092234677855   -0.120457704707
     H    2.585451282942    0.211143807636   -0.610871621698
     H    1.660520325338    1.742655772393   -0.426629001100
     H    2.095017506484    0.772351128903    1.017839344307
     H   -0.504615496371   -1.982538056350   -0.219000108836
     H    1.282207828191   -2.046390135400   -0.415735990676
     H    0.561697982378   -1.717841045210    1.195882888158
     H   -1.988615368673    0.550152542020   -0.967400070990
  }
 
 basis=cc-pvdz
 {rhf;maxit,200}
 {uccsd(t);maxit,200}

 Variables initialized (661), CPU time= 0.00 sec
 Commands  initialized (458), CPU time= 0.01 sec, 486 directives.
 Default parameters read. Elapsed time= 0.05 sec

 Checking input...
 Passed
1


                                         ***  PROGRAM SYSTEM MOLPRO  ***
                         Copyright, University College Cardiff Consultants Limited, 2008

                                    Version 2010.1 linked May 16 2016 07:17:05


 **********************************************************************************************************************************
 LABEL *   Frequencies for min3                                                          
 Linux-4.4.3/n081(x86_64) 64 bit mpp version                                             DATE: 07-Mar-20          TIME: 04:51:50  
 **********************************************************************************************************************************

 SHA1:             9e8077add272b0f3cad6f7df79ec5211205f459d
 **********************************************************************************************************************************

 THRESHOLDS:

 ZERO    =  1.00D-12  ONEINT  =  1.00D-16  TWOINT  =  1.00D-16  PREFAC  =  1.00D-14  LOCALI  =  1.00D-09  EORDER  =  1.00D-04
 ENERGY  =  1.00D-10  ETEST   =  0.00D+00  EDENS   =  0.00D+00  THRDEDEF=  1.00D-06  GRADIENT=  1.00D-02  STEP    =  1.00D-03
 ORBITAL =  1.00D-10  CIVEC   =  1.00D-05  COEFF   =  1.00D-04  PRINTCI =  5.00D-02  PUNCHCI =  9.90D+01  OPTGRAD =  1.00D-06
 OPTENERG=  1.00D-06  OPTSTEP =  3.00D-04  THRGRAD =  1.00D-10  COMPRESS=  1.00D-13  VARMIN  =  1.00D-07  VARMAX  =  1.00D-03
 THRDOUB =  0.00D+00  THRDIV  =  1.00D-05  THRRED  =  1.00D-07  THRPSP  =  1.00D+00  THRDC   =  1.00D-10  THRCS   =  1.00D-10
 THRNRM  =  1.00D-08  THREQ   =  0.00D+00  THRDE   =  1.00D+00  THRREF  =  1.00D-05  SPARFAC =  1.00D+00  THRDLP  =  1.00D-07
 THRDIA  =  1.00D-10  THRDLS  =  1.00D-07  THRGPS  =  0.00D+00  THRKEX  =  0.00D+00  THRDIS  =  2.00D-01  THRVAR  =  1.00D-10
 THRLOC  =  1.00D-06  THRGAP  =  1.00D-06  THRLOCT = -1.00D+00  THRGAPT = -1.00D+00  THRORB  =  1.00D-06  THRMLTP =  0.00D+00
 THRCPQCI=  1.00D-10  KEXTA   =  0.00D+00  THRCOARS=  0.00D+00  SYMTOL  =  1.00D-06  GRADTOL =  1.00D-06  THROVL  =  1.00D-08
 THRORTH =  1.00D-08  GRID    =  1.00D-06  GRIDMAX =  1.00D-03  DTMAX   =  0.00D+00

 SETTING GEOMTYP        =    XYZ

 Variable memory set to 1000000000 words,  buffer space   230000 words

 SETTING BASIS          =    CC-PVDZ


 Recomputing integrals since basis changed


 Using spherical harmonics

 Library entry C      S cc-pVDZ              selected for orbital group  1
 Library entry C      P cc-pVDZ              selected for orbital group  1
 Library entry C      D cc-pVDZ              selected for orbital group  1
 Library entry O      S cc-pVDZ              selected for orbital group  2
 Library entry O      P cc-pVDZ              selected for orbital group  2
 Library entry O      D cc-pVDZ              selected for orbital group  2
 Library entry H      S cc-pVDZ              selected for orbital group  3
 Library entry H      P cc-pVDZ              selected for orbital group  3

1PROGRAM * SEWARD (Integral evaluation for generally contracted gaussian basis sets)     Author: Roland Lindh, 1990

 Geometry written to block  1 of record 700


 Point group  C1  



 ATOMIC COORDINATES

 NR  ATOM    CHARGE       X              Y              Z

   1  C       6.00    3.357976046    1.344348918   -0.089443368
   2  C       6.00    0.929389944   -0.113370094   -0.371319661
   3  C       6.00    0.851005696   -2.903174955    0.190845199
   4  O       8.00   -1.059724443    1.374405760    0.480848423
   5  O       8.00   -3.472985600    0.174298281   -0.227632072
   6  H       1.00    4.885794851    0.399003971   -1.154380066
   7  H       1.00    3.137928651    3.293142151   -0.806211972
   8  H       1.00    3.959009328    1.459532111    1.923437607
   9  H       1.00   -0.953585090   -3.746453972   -0.413850228
  10  H       1.00    2.423021639   -3.867116914   -0.785627165
  11  H       1.00    1.061455355   -3.246249113    2.259891144
  12  H       1.00   -3.757938428    1.039637635   -1.828121194

 Bond lengths in Bohr (Angstrom)

 1-2  2.846476668  1-6  2.088539572  1-7  2.088054873  1-8  2.103853130  2-3  2.846960586
     ( 1.506290578)     ( 1.105207541)     ( 1.104951050)     ( 1.113311127)     ( 1.506546657)

  2- 4  2.626069968   3- 9  2.081663749   3-10  2.086604060   3-11  2.107828281   4- 5  2.786760123
       ( 1.389656376)       ( 1.101569013)       ( 1.104183313)       ( 1.115414687)       ( 1.474689944)

  5-12  1.841623126
       ( 0.974544986)

 Bond angles

  1-2-3  120.38240730   1-2-4  108.90382840   2-1-6  109.98881274   2-1-7  110.73541197

  2- 1- 8  111.50135126   2- 3- 9  111.31369224   2- 3-10  109.84905402   2- 3-11  110.52240722

  2- 4- 5  109.23562154   3- 2- 4  118.04958559   4- 5-12   98.77664531   6- 1- 7  108.93558384

  6- 1- 8  107.67664196   7- 1- 8  107.90482323   9- 3-10  109.27037456   9- 3-11  107.80389746

 10- 3-11  107.99606754

 NUCLEAR CHARGE:                   41
 NUMBER OF PRIMITIVE AOS:         184
 NUMBER OF SYMMETRY AOS:          179
 NUMBER OF CONTRACTIONS:          105   ( 105A   )
 NUMBER OF CORE ORBITALS:           5   (   5A   )
 NUMBER OF VALENCE ORBITALS:       27   (  27A   )


 NUCLEAR REPULSION ENERGY  183.22758777


 Eigenvalues of metric

         1 0.345E-02 0.435E-02 0.105E-01 0.141E-01 0.182E-01 0.214E-01 0.331E-01 0.346E-01


 Contracted 2-electron integrals neglected if value below      1.0D-16
 AO integral compression algorithm  1   Integral accuracy      1.0D-16

     127.664 MB (compressed) written to integral file ( 93.2%)

     Node minimum: 31.982 MB, node maximum: 50.332 MB


 NUMBER OF SORTED TWO-ELECTRON INTEGRALS:    5164320.     BUFFER LENGTH:  32768
 NUMBER OF SEGMENTS:   1  SEGMENT LENGTH:    5164320      RECORD LENGTH: 524288

 Memory used in sort:       5.72 MW

 SORT1 READ    17075413. AND WROTE     5135907. INTEGRALS IN     15 RECORDS. CPU TIME:     0.28 SEC, REAL TIME:     0.32 SEC
 SORT2 READ    15396637. AND WROTE    15487395. INTEGRALS IN    519 RECORDS. CPU TIME:     0.09 SEC, REAL TIME:     0.13 SEC

 Node minimum:     5160610.  Node maximum:     5164320. integrals

 OPERATOR DM      FOR CENTER  0  COORDINATES:    0.000000    0.000000    0.000000


 **********************************************************************************************************************************
 DATASETS  * FILE   NREC   LENGTH (MB)   RECORD NAMES
              1      18        3.17       500      610      700      900      950      970     1000      129      960     1100   
                                          VAR    BASINP    GEOM    SYMINP    ZMAT    AOBASIS   BASIS     P2S    ABASIS      S 
                                         1400     1410     1200     1210     1080     1600     1650     1700   
                                           T        V       H0       H01     AOSYM     SMH    MOLCAS    OPER   

 PROGRAMS   *        TOTAL       INT
 CPU TIMES  *         0.99      0.93
 REAL TIME  *         1.42 SEC
 DISK USED  *       314.93 MB      
 GA USED    *         0.00 MB       (max)       0.00 MB       (current)
 **********************************************************************************************************************************

1PROGRAM * RHF-SCF (OPEN SHELL)       Authors: W. Meyer, H.-J. Werner


 NUMBER OF ELECTRONS:      21+   20-    SPACE SYMMETRY=1    SPIN SYMMETRY: Doublet 
 CONVERGENCE THRESHOLDS:    1.00E-10 (Density)    1.00E-11 (Energy)
 MAX. NUMBER OF ITERATIONS:      200
 INTERPOLATION TYPE:            DIIS
 INTERPOLATION STEPS:              2 (START)      1 (STEP)
 LEVEL SHIFTS:                 -0.30 (CLOSED)  0.00 (OPEN) 



 Orbital guess generated from atomic densities. Full valence occupancy:   32

 Molecular orbital dump at record        2100.2

 ITERATION    DDIFF          GRAD             ENERGY        2-EL.EN.            DIPOLE MOMENTS         DIIS
    1      0.000D+00      0.000D+00      -267.17825246    555.829490    0.57056    0.04883   -0.74801    0
    2      0.000D+00      0.617D-02      -267.24892765    555.750004    0.41415   -0.13162   -0.59892    1
    3      0.927D-02      0.214D-02      -267.26110500    555.668056    0.39385   -0.05971   -0.62649    2
    4      0.336D-02      0.912D-03      -267.26471261    555.820314    0.37923   -0.09990   -0.64306    3
    5      0.186D-02      0.363D-03      -267.26528174    555.791748    0.38177   -0.09345   -0.63614    4
    6      0.792D-03      0.110D-03      -267.26535820    555.778000    0.38005   -0.09326   -0.63891    5
    7      0.277D-03      0.511D-04      -267.26537835    555.775005    0.37934   -0.09301   -0.63841    6
    8      0.144D-03      0.273D-04      -267.26538441    555.773059    0.37962   -0.09313   -0.63863    7
    9      0.925D-04      0.115D-04      -267.26538533    555.773376    0.37981   -0.09309   -0.63838    8
   10      0.366D-04      0.501D-05      -267.26538549    555.773988    0.38007   -0.09310   -0.63845    9
   11      0.147D-04      0.197D-05      -267.26538552    555.773828    0.38012   -0.09309   -0.63845    9
   12      0.651D-05      0.671D-06      -267.26538552    555.773963    0.38014   -0.09309   -0.63845    9
   13      0.227D-05      0.226D-06      -267.26538552    555.773878    0.38014   -0.09309   -0.63845    9
   14      0.632D-06      0.757D-07      -267.26538552    555.773887    0.38014   -0.09310   -0.63845    9
   15      0.193D-06      0.300D-07      -267.26538552    555.773883    0.38014   -0.09310   -0.63844    9
   16      0.824D-07      0.145D-07      -267.26538552    555.773885    0.38014   -0.09310   -0.63845    9
   17      0.373D-07      0.750D-08      -267.26538552    555.773885    0.38014   -0.09310   -0.63845    9
   18      0.222D-07      0.341D-08      -267.26538552    555.773885    0.38014   -0.09310   -0.63845    9
   19      0.114D-07      0.133D-08      -267.26538552    555.773885    0.38014   -0.09310   -0.63845    9
   20      0.444D-08      0.566D-09      -267.26538552    555.773885    0.38014   -0.09310   -0.63845    9
   21      0.165D-08      0.286D-09      -267.26538552    555.773885    0.38014   -0.09310   -0.63845    9
   22      0.752D-09      0.162D-09      -267.26538552    555.773885    0.38014   -0.09310   -0.63845    9
   23      0.446D-09      0.795D-10      -267.26538552    555.773885    0.38014   -0.09310   -0.63845    9
   24      0.263D-09      0.316D-10      -267.26538552    555.773885    0.38014   -0.09310   -0.63845    9
   25      0.931D-10      0.129D-10      -267.26538552    555.773885    0.38014   -0.09310   -0.63845    0

 Final alpha occupancy:  21
 Final beta  occupancy:  20

 !RHF STATE 1.1 Energy               -267.265385519116
 Nuclear energy                       183.22758777
 One-electron energy                 -728.37991570
 Two-electron energy                  277.88694241
 Virial quotient                       -1.00155312
 !RHF STATE 1.1 Dipole moment           0.38014242    -0.09309566    -0.63844509
 Dipole moment /Debye                   0.96616237    -0.23661006    -1.62265928

 Orbital energies:

         1.1          2.1          3.1          4.1          5.1          6.1          7.1          8.1          9.1         10.1
    -20.630475   -20.628801   -11.279214   -11.237867   -11.232159    -1.470101    -1.240677    -1.023285    -0.945389    -0.768453

        11.1         12.1         13.1         14.1         15.1         16.1         17.1         18.1         19.1         20.1
     -0.704535    -0.643056    -0.626675    -0.588838    -0.544948    -0.543668    -0.538844    -0.517159    -0.492992    -0.469799

        21.1         22.1         23.1
     -0.352160     0.181291     0.183505


 **********************************************************************************************************************************
 DATASETS  * FILE   NREC   LENGTH (MB)   RECORD NAMES
              1      18        3.17       500      610      700      900      950      970     1000      129      960     1100   
                                          VAR    BASINP    GEOM    SYMINP    ZMAT    AOBASIS   BASIS     P2S    ABASIS      S 
                                         1400     1410     1200     1210     1080     1600     1650     1700   
                                           T        V       H0       H01     AOSYM     SMH    MOLCAS    OPER   

              2       3        0.77       700     1000     2100   
                                         GEOM     BASIS     RHF  

 PROGRAMS   *        TOTAL       RHF       INT
 CPU TIMES  *         2.33      1.34      0.93
 REAL TIME  *         2.88 SEC
 DISK USED  *       331.50 MB      
 SF USED    *         0.04 MB      
 GA USED    *         0.00 MB       (max)       0.00 MB       (current)
 **********************************************************************************************************************************


1PROGRAM * CCSD (Unrestricted open-shell coupled cluster)     Authors: C. Hampel, H.-J. Werner, 1991, M. Deegan, P.J. Knowles, 1992


 Convergence thresholds:  THRVAR = 1.00D-08  THRDEN = 1.00D-10

 CCSD(T)     terms to be evaluated (factor= 1.000)


 Number of core orbitals:           5 (   5 )
 Number of closed-shell orbitals:  15 (  15 )
 Number of active  orbitals:        1 (   1 )
 Number of external orbitals:      84 (  84 )

 Memory could be reduced to 24.91 Mwords without degradation in triples

 Number of N-1 electron functions:              31
 Number of N-2 electron functions:             465
 Number of singly external CSFs:              2635
 Number of doubly external CSFs:           2537250
 Total number of CSFs:                     2539885

 Molecular orbitals read from record     2100.2  Type=RHF/CANONICAL (state 1.1)

 Integral transformation finished. Total CPU:   0.87 sec, npass=  1  Memory used:  12.63 MW

 Starting RMP2 calculation

 ITER.      SQ.NORM     CORR.ENERGY   TOTAL ENERGY   ENERGY CHANGE        DEN1      VAR(S)    VAR(P)  DIIS     TIME
   1      1.24303024    -0.78638142  -268.05176693    -0.78638142    -0.00304965  0.20D-04  0.11D-02  1  1     1.18
   2      1.24567159    -0.78967026  -268.05505577    -0.00328884    -0.00000475  0.54D-06  0.19D-05  2  2     1.45
   3      1.24573717    -0.78971233  -268.05509785    -0.00004208    -0.00000003  0.16D-07  0.68D-08  3  3     1.73
   4      1.24573813    -0.78971233  -268.05509785    -0.00000000    -0.00000000  0.27D-09  0.38D-10  4  4     2.03
   5      1.24573821    -0.78971237  -268.05509789    -0.00000003    -0.00000000  0.25D-11  0.65D-12  5  5     2.35
   6      1.24573822    -0.78971237  -268.05509789    -0.00000001    -0.00000000  0.28D-13  0.87D-14  6  6     2.69
   7      1.24573822    -0.78971237  -268.05509789     0.00000000    -0.00000000  0.47D-15  0.12D-15  6  1     3.05
   8      1.24573822    -0.78971237  -268.05509789     0.00000000    -0.00000000  0.60D-17  0.13D-17  6  2     3.40

 Norm of t1 vector:      0.03894547      S-energy:    -0.00227259      T1 diagnostic:  0.00055052
 Norm of t2 vector:      0.49418769      P-energy:    -0.78743978
                                         Alpha-Beta:  -0.59341753
                                         Alpha-Alpha: -0.10094284
                                         Beta-Beta:   -0.09307941

 Spin contamination <S**2-Sz**2-Sz>     0.00104106
  Reference energy                   -267.265385519116
  RHF-RMP2 correlation energy          -0.789712372627
 !RHF-RMP2 energy                    -268.055097891743

 Starting UCCSD calculation

 ITER.      SQ.NORM     CORR.ENERGY   TOTAL ENERGY   ENERGY CHANGE        DEN1      VAR(S)    VAR(P)  DIIS     TIME
   1      1.26280306    -0.80905143  -268.07443695    -0.80905143    -0.02515651  0.38D-02  0.59D-02  1  1     9.11
   2      1.29157854    -0.83646104  -268.10184656    -0.02740961    -0.00201125  0.22D-03  0.66D-03  2  2    14.80
   3      1.30152060    -0.84095925  -268.10634477    -0.00449821    -0.00032465  0.19D-03  0.56D-04  3  3    20.51
   4      1.30643455    -0.84243653  -268.10782205    -0.00147728    -0.00007208  0.43D-04  0.14D-04  4  4    26.25
   5      1.30916430    -0.84282465  -268.10821017    -0.00038812    -0.00002366  0.19D-04  0.32D-05  5  5    32.02
   6      1.31110288    -0.84302908  -268.10841460    -0.00020442    -0.00000646  0.42D-05  0.12D-05  6  6    37.82
   7      1.31205178    -0.84308784  -268.10847336    -0.00005876    -0.00000208  0.14D-05  0.37D-06  6  2    42.65
   8      1.31249336    -0.84313051  -268.10851603    -0.00004267    -0.00000065  0.45D-06  0.11D-06  6  1    48.94
   9      1.31267870    -0.84313510  -268.10852062    -0.00000459    -0.00000022  0.15D-06  0.35D-07  6  4    55.24
  10      1.31274200    -0.84313803  -268.10852355    -0.00000293    -0.00000005  0.35D-07  0.95D-08  6  3    61.53
  11      1.31277152    -0.84313677  -268.10852229     0.00000126    -0.00000002  0.13D-07  0.28D-08  6  5    67.83
  12      1.31278190    -0.84313651  -268.10852203     0.00000026    -0.00000000  0.26D-08  0.95D-09  6  6    74.12
  13      1.31278075    -0.84313560  -268.10852112     0.00000092    -0.00000000  0.96D-09  0.28D-09  6  2    80.42
  14      1.31277555    -0.84313475  -268.10852027     0.00000084    -0.00000000  0.21D-09  0.68D-10  6  1    86.71
  15      1.31277147    -0.84313417  -268.10851968     0.00000059    -0.00000000  0.78D-10  0.19D-10  6  4    93.00
  16      1.31276829    -0.84313378  -268.10851930     0.00000038    -0.00000000  0.28D-10  0.63D-11  6  3    99.30
  17      1.31276609    -0.84313354  -268.10851906     0.00000024    -0.00000000  0.10D-10  0.24D-11  6  5   105.58
  18      1.31276519    -0.84313348  -268.10851900     0.00000006    -0.00000000  0.41D-11  0.87D-12  6  6   111.88
  19      1.31276458    -0.84313345  -268.10851897     0.00000003    -0.00000000  0.16D-11  0.37D-12  6  2   118.18
  20      1.31276425    -0.84313344  -268.10851896     0.00000001    -0.00000000  0.60D-12  0.13D-12  6  1   124.47
  21      1.31276409    -0.84313343  -268.10851895     0.00000001    -0.00000000  0.28D-12  0.58D-13  6  4   130.76
  22      1.31276397    -0.84313342  -268.10851894     0.00000001    -0.00000000  0.74D-13  0.21D-13  6  3   137.06
  23      1.31276391    -0.84313342  -268.10851893     0.00000000    -0.00000000  0.21D-13  0.63D-14  6  5   143.33
  24      1.31276391    -0.84313342  -268.10851894    -0.00000000    -0.00000000  0.67D-14  0.23D-14  6  6   149.64
  25      1.31276391    -0.84313342  -268.10851894    -0.00000000    -0.00000000  0.21D-14  0.52D-15  6  2   155.97
  26      1.31276392    -0.84313342  -268.10851894    -0.00000000    -0.00000000  0.77D-15  0.15D-15  6  1   161.74
  27      1.31276393    -0.84313342  -268.10851894    -0.00000000    -0.00000000  0.20D-15  0.63D-16  6  3   168.04
  28      1.31276393    -0.84313342  -268.10851894    -0.00000000    -0.00000000  0.30D-16  0.11D-16  6  4   174.22
  29      1.31276393    -0.84313342  -268.10851894    -0.00000000    -0.00000000  0.71D-17  0.29D-17  6  5   180.51
  30      1.31276393    -0.84313342  -268.10851894    -0.00000000    -0.00000000  0.15D-17  0.54D-18  6  6   186.82
  31      1.31276393    -0.84313342  -268.10851894    -0.00000000    -0.00000000  0.35D-18  0.10D-18  6  2   193.13

 Norm of t1 vector:      0.13871949      S-energy:    -0.00282245      T1 diagnostic:  0.01616850
                                                                       D1 diagnostic:  0.06279487
 Norm of t2 vector:      0.54177563      P-energy:    -0.84031097
                                         Alpha-Beta:  -0.66486520
                                         Alpha-Alpha: -0.09147539
                                         Beta-Beta:   -0.08397038

 Spin contamination <S**2-Sz**2-Sz>     0.00217213

 Memory could be reduced to 28.85 Mwords without degradation in triples
 

 RESULTS
 =======

  Reference energy                   -267.265385519116
  UCCSD singles energy                 -0.002822450541
  UCCSD pair energy                    -0.840310969429
  UCCSD correlation energy             -0.843133419970
  Triples (T) contribution             -0.024976227691
  Total correlation energy             -0.868109647661
 
  RHF-UCCSD energy                   -268.108518939086
  RHF-UCCSD[T] energy                -268.134830848678
  RHF-UCCSD-T energy                 -268.133073659646
 !RHF-UCCSD(T) energy                -268.133495166777

 Program statistics:

 Available memory in ccsd:               999997692
 Min. memory needed in ccsd:               7337057
 Max. memory used in ccsd:                10523002
 Max. memory used in cckext:              10867977 (31 integral passes)
 Max. memory used in cckint:              12633073 ( 1 integral passes)



 **********************************************************************************************************************************
 DATASETS  * FILE   NREC   LENGTH (MB)   RECORD NAMES
              1      18        3.17       500      610      700      900      950      970     1000      129      960     1100   
                                          VAR    BASINP    GEOM    SYMINP    ZMAT    AOBASIS   BASIS     P2S    ABASIS      S 
                                         1400     1410     1200     1210     1080     1600     1650     1700   
                                           T        V       H0       H01     AOSYM     SMH    MOLCAS    OPER   

              2       3        0.77       700     1000     2100   
                                         GEOM     BASIS     RHF  

 PROGRAMS   *        TOTAL  UCCSD(T)       RHF       INT
 CPU TIMES  *       240.40    238.07      1.34      0.93
 REAL TIME  *       250.37 SEC
 DISK USED  *         1.30 GB      
 SF USED    *       553.73 MB      
 GA USED    *         0.00 MB       (max)       0.00 MB       (current)
 **********************************************************************************************************************************

        UCCSD(T)        RHF-SCF 
   -268.13349517   -267.26538552
 **********************************************************************************************************************************
 Variable memory released
