
    -----------------------------------------------------------------------
          Psi4: An Open-Source Ab Initio Electronic Structure Package
                               Psi4 1.4a2.dev478 

                         Git: Rev {master} f722895 dirty


    R. M. Parrish, L. A. Burns, D. G. A. Smith, A. C. Simmonett,
    A. E. DePrince III, E. G. Hohenstein, U. Bozkaya, A. Yu. Sokolov,
    R. Di Remigio, R. M. Richard, J. F. Gonthier, A. M. James,
    H. R. McAlexander, A. Kumar, M. Saitow, X. Wang, B. P. Pritchard,
    P. Verma, H. F. Schaefer III, K. Patkowski, R. A. King, E. F. Valeev,
    F. A. Evangelista, J. M. Turney, T. D. Crawford, and C. D. Sherrill,
    J. Chem. Theory Comput. 13(7) pp 3185--3197 (2017).
    (doi: 10.1021/acs.jctc.7b00174)


                         Additional Contributions by
    P. Kraus, H. Kruse, M. H. Lechner, M. C. Schieber, R. A. Shaw,
    A. Alenaizan, R. Galvelis, Z. L. Glick, S. Lehtola, and J. P. Misiewicz

    -----------------------------------------------------------------------


    Psi4 started on: Friday, 05 June 2020 11:42AM

    Process ID: 29354
    Host:       n032
    PSIDATADIR: /opt/psi/4/master/share/psi4
    Memory:     500.0 MiB
    Threads:    4
    
  ==> Input File <==

--------------------------------------------------------------------------
set memory 40Gb

molecule {
    C   -1.169969463277   -0.774075714550   -0.000125580240
    H   -1.617202611977   -1.211544387650   -0.890367767540
    H   -1.617274396477   -1.211731322050    0.889988080060
    C   -1.170087777377    0.773896028650    0.000044791660
    H   -1.617450892977    1.211295070450    0.890255761560
    H   -1.617399631177    1.211482151650   -0.890099389140
    C    0.356217998898    0.920226143746    0.000100313642
    H    0.842159141640    1.891510988652    0.000208936764
    O    0.761188604887    0.000087227833   -1.017879421134
    C    0.356722186985   -0.919970417730   -0.000075752855
    H    0.840864061638   -1.891586794150   -0.000150389688
    O    0.761117862597   -0.000108090366    1.017931987267
}

set {
    e_convergence 10
    d_convergence 10
    freeze_core True
    basis_guess True
    cc_type conv
    maxiter 300
}

E = energy('mp2/heavy-aug-cc-pV(Q+d)Z')
psi4.print_out("\n========================OPTAVC-XTPL==========================\n\n")
psi4.print_out("MP2/QZ correlation energy {}\n".format(variable("MP2 CORRELATION ENERGY")))
psi4.print_out("SCF/QZ reference energy {}\n".format(variable("CURRENT REFERENCE ENERGY")))
psi4.print_out("\n\n=============================================================\n")

E = energy('mp2/heavy-aug-cc-pV(T+d)Z')
psi4.print_out("\n========================OPTAVC-XTPL==========================\n\n")
psi4.print_out("MP2/TZ correlation energy {}".format(variable("MP2 CORRELATION ENERGY")))
psi4.print_out("\n\n=============================================================\n")
--------------------------------------------------------------------------

Scratch directory: /tmp/

Scratch directory: /tmp/
    SCF Algorithm Type (re)set to DF.

*** tstart() called on n032
*** at Fri Jun  5 11:42:51 2020


  //>>>>>>>>>>>>>>>>>>>>>>>>>>>>>>>>>>>//
  //      Guess SCF, pcseg-0 Basis     //
  //<<<<<<<<<<<<<<<<<<<<<<<<<<<<<<<<<<<//

   => Loading Basis Set <=

    Name: PCSEG-0
    Role: ORBITAL
    Keyword: BASIS
    atoms 1, 4, 7, 10     entry C          line    71 file /opt/psi/4/master/share/psi4/basis/pcseg-0.gbs 
    atoms 2-3, 5-6, 8, 11 entry H          line    13 file /opt/psi/4/master/share/psi4/basis/pcseg-0.gbs 
    atoms 9, 12           entry O          line   103 file /opt/psi/4/master/share/psi4/basis/pcseg-0.gbs 


         ---------------------------------------------------------
                           SCF Castup computation                  
         ---------------------------------------------------------
                                   SCF
               by Justin Turney, Rob Parrish, Andy Simmonett
                          and Daniel G. A. Smith
                              RHF Reference
                        4 Threads,    500 MiB Core
         ---------------------------------------------------------

  ==> Geometry <==

    Molecular point group: c1
    Full point group: C1

    Geometry (in Angstrom), charge = 0, multiplicity = 1:

       Center              X                  Y                   Z               Mass       
    ------------   -----------------  -----------------  -----------------  -----------------
         C           -1.169969463277    -0.774075714550    -0.000125580240    12.000000000000
         H           -1.617202611977    -1.211544387650    -0.890367767540     1.007825032230
         H           -1.617274396477    -1.211731322050     0.889988080060     1.007825032230
         C           -1.170087777377     0.773896028650     0.000044791660    12.000000000000
         H           -1.617450892977     1.211295070450     0.890255761560     1.007825032230
         H           -1.617399631177     1.211482151650    -0.890099389140     1.007825032230
         C            0.356217998898     0.920226143746     0.000100313642    12.000000000000
         H            0.842159141640     1.891510988652     0.000208936764     1.007825032230
         O            0.761188604887     0.000087227833    -1.017879421134    15.994914619570
         C            0.356722186985    -0.919970417730    -0.000075752855    12.000000000000
         H            0.840864061638    -1.891586794150    -0.000150389688     1.007825032230
         O            0.761117862597    -0.000108090366     1.017931987267    15.994914619570

  Running in c1 symmetry.

  Rotational constants: A =      0.20029  B =      0.16406  C =      0.14757 [cm^-1]
  Rotational constants: A =   6004.67163  B =   4918.49219  C =   4424.03748 [MHz]
  Nuclear repulsion =  258.059106400299186

  Charge       = 0
  Multiplicity = 1
  Electrons    = 46
  Nalpha       = 23
  Nbeta        = 23

  ==> Algorithm <==

  SCF Algorithm Type is DF.
  DIIS enabled.
  MOM disabled.
  Fractional occupation disabled.
  Guess Type is SAD.
  Energy threshold   = 1.00e-10
  Density threshold  = 1.00e-10
  Integral threshold = 0.00e+00

  ==> Primary Basis <==

  Basis Set: PCSEG-0
    Blend: PCSEG-0
    Number of shells: 42
    Number of basis function: 66
    Number of Cartesian functions: 66
    Spherical Harmonics?: true
    Max angular momentum: 1

   => Loading Basis Set <=

    Name: (PCSEG-0 AUX)
    Role: JKFIT
    Keyword: DF_BASIS_SCF
    atoms 1, 4, 7, 10     entry C          line   198 file /opt/psi/4/master/share/psi4/basis/def2-universal-jkfit.gbs 
    atoms 2-3, 5-6, 8, 11 entry H          line    18 file /opt/psi/4/master/share/psi4/basis/def2-universal-jkfit.gbs 
    atoms 9, 12           entry O          line   318 file /opt/psi/4/master/share/psi4/basis/def2-universal-jkfit.gbs 

  ==> Integral Setup <==

  ==> DiskDFJK: Density-Fitted J/K Matrices <==

    J tasked:                  Yes
    K tasked:                  Yes
    wK tasked:                  No
    OpenMP threads:              4
    Integrals threads:           4
    Memory [MiB]:              375
    Algorithm:                Core
    Integral Cache:           NONE
    Schwarz Cutoff:          1E-12
    Fitting Condition:       1E-10

   => Auxiliary Basis Set <=

  Basis Set: (PCSEG-0 AUX)
    Blend: DEF2-UNIVERSAL-JKFIT
    Number of shells: 186
    Number of basis function: 562
    Number of Cartesian functions: 662
    Spherical Harmonics?: true
    Max angular momentum: 4

  Minimum eigenvalue in the overlap matrix is 1.2753034882E-03.
  Reciprocal condition number of the overlap matrix is 2.0993887168E-04.
    Using symmetric orthogonalization.

  ==> Pre-Iterations <==

  SCF Guess: Superposition of Atomic Densities via on-the-fly atomic UHF (no occupation information).

   -------------------------
    Irrep   Nso     Nmo    
   -------------------------
     A         66      66 
   -------------------------
    Total      66      66
   -------------------------

  ==> Iterations <==

                           Total Energy        Delta E     RMS |[F,P]|

   @DF-RHF iter SAD:  -303.78301130268403   -3.03783e+02   0.00000e+00 
   @DF-RHF iter   1:  -303.56516863755900    2.17843e-01   7.20998e-03 DIIS
   @DF-RHF iter   2:  -303.66407283649448   -9.89042e-02   3.86831e-03 DIIS
   @DF-RHF iter   3:  -303.68843794438561   -2.43651e-02   6.09996e-04 DIIS
   @DF-RHF iter   4:  -303.68957875826857   -1.14081e-03   1.89768e-04 DIIS
   @DF-RHF iter   5:  -303.68966727392734   -8.85157e-05   4.01214e-05 DIIS
   @DF-RHF iter   6:  -303.68967439541643   -7.12149e-06   8.09409e-06 DIIS
   @DF-RHF iter   7:  -303.68967476732439   -3.71908e-07   1.67176e-06 DIIS
   @DF-RHF iter   8:  -303.68967478044135   -1.31170e-08   5.23989e-07 DIIS
   @DF-RHF iter   9:  -303.68967478177785   -1.33650e-09   1.00229e-07 DIIS
   @DF-RHF iter  10:  -303.68967478184123   -6.33804e-11   1.69419e-08 DIIS
   @DF-RHF iter  11:  -303.68967478184311   -1.87583e-12   2.47245e-09 DIIS
   @DF-RHF iter  12:  -303.68967478184362   -5.11591e-13   3.83226e-10 DIIS
   @DF-RHF iter  13:  -303.68967478184322    3.97904e-13   9.24332e-11 DIIS
  Energy and wave function converged.


  ==> Post-Iterations <==

    Orbital Energies [Eh]
    ---------------------

    Doubly Occupied:                                                      

       1A    -20.583808     2A    -20.583741     3A    -11.368441  
       4A    -11.368348     5A    -11.254774     6A    -11.254369  
       7A     -1.548591     8A     -1.317191     9A     -1.091367  
      10A     -1.011022    11A     -0.822296    12A     -0.787985  
      13A     -0.770481    14A     -0.684601    15A     -0.664317  
      16A     -0.661772    17A     -0.554934    18A     -0.534525  
      19A     -0.528143    20A     -0.525371    21A     -0.518322  
      22A     -0.467502    23A     -0.441472  

    Virtual:                                                              

      24A      0.203629    25A      0.232759    26A      0.236696  
      27A      0.242097    28A      0.254675    29A      0.267626  
      30A      0.315976    31A      0.352134    32A      0.354455  
      33A      0.387999    34A      0.408979    35A      0.474001  
      36A      0.575789    37A      0.796180    38A      0.799965  
      39A      0.821132    40A      0.924843    41A      0.933906  
      42A      0.944601    43A      0.951628    44A      1.004305  
      45A      1.005387    46A      1.033489    47A      1.061269  
      48A      1.071627    49A      1.136341    50A      1.149730  
      51A      1.171718    52A      1.172722    53A      1.210688  
      54A      1.239114    55A      1.422290    56A      1.454241  
      57A      1.484847    58A      1.525889    59A      1.692016  
      60A      1.710096    61A      1.929946    62A      1.952618  
      63A      2.144724    64A      2.303223    65A      2.379099  
      66A      2.449179  

    Final Occupation by Irrep:
              A 
    DOCC [    23 ]

  @DF-RHF Final Energy:  -303.68967478184322

   => Energetics <=

    Nuclear Repulsion Energy =            258.0591064002991857
    One-Electron Energy =                -924.8108131519684321
    Two-Electron Energy =                 363.0620319698259664
    Total Energy =                       -303.6896747818432232

Computation Completed

  //>>>>>>>>>>>>>>>>>>>>>>>>>>>>>>>>>>>//
  //                SCF                //
  //<<<<<<<<<<<<<<<<<<<<<<<<<<<<<<<<<<<//

   => Loading Basis Set <=

    Name: HEAVY-AUG-CC-PV(Q+D)Z
    Role: ORBITAL
    Keyword: BASIS
    atoms 1, 4, 7, 10     entry C          line   333 file /opt/psi/4/master/share/psi4/basis/heavy-aug-cc-pv_qpd_z.gbs 
    atoms 2-3, 5-6, 8, 11 entry H          line    86 file /opt/psi/4/master/share/psi4/basis/heavy-aug-cc-pv_qpd_z.gbs 
    atoms 9, 12           entry O          line   453 file /opt/psi/4/master/share/psi4/basis/heavy-aug-cc-pv_qpd_z.gbs 


         ---------------------------------------------------------
                                   SCF
               by Justin Turney, Rob Parrish, Andy Simmonett
                          and Daniel G. A. Smith
                              RHF Reference
                        4 Threads,    500 MiB Core
         ---------------------------------------------------------

  ==> Geometry <==

    Molecular point group: c1
    Full point group: C1

    Geometry (in Angstrom), charge = 0, multiplicity = 1:

       Center              X                  Y                   Z               Mass       
    ------------   -----------------  -----------------  -----------------  -----------------
         C           -1.169969463277    -0.774075714550    -0.000125580240    12.000000000000
         H           -1.617202611977    -1.211544387650    -0.890367767540     1.007825032230
         H           -1.617274396477    -1.211731322050     0.889988080060     1.007825032230
         C           -1.170087777377     0.773896028650     0.000044791660    12.000000000000
         H           -1.617450892977     1.211295070450     0.890255761560     1.007825032230
         H           -1.617399631177     1.211482151650    -0.890099389140     1.007825032230
         C            0.356217998898     0.920226143746     0.000100313642    12.000000000000
         H            0.842159141640     1.891510988652     0.000208936764     1.007825032230
         O            0.761188604887     0.000087227833    -1.017879421134    15.994914619570
         C            0.356722186985    -0.919970417730    -0.000075752855    12.000000000000
         H            0.840864061638    -1.891586794150    -0.000150389688     1.007825032230
         O            0.761117862597    -0.000108090366     1.017931987267    15.994914619570

  Running in c1 symmetry.

  Rotational constants: A =      0.20029  B =      0.16406  C =      0.14757 [cm^-1]
  Rotational constants: A =   6004.67163  B =   4918.49219  C =   4424.03748 [MHz]
  Nuclear repulsion =  258.059106400299186

  Charge       = 0
  Multiplicity = 1
  Electrons    = 46
  Nalpha       = 23
  Nbeta        = 23

  ==> Algorithm <==

  SCF Algorithm Type is DF.
  DIIS enabled.
  MOM disabled.
  Fractional occupation disabled.
  Guess Type is SAD.
  Energy threshold   = 1.00e-10
  Density threshold  = 1.00e-10
  Integral threshold = 0.00e+00

  ==> Primary Basis <==

  Basis Set: HEAVY-AUG-CC-PV(Q+D)Z
    Blend: HEAVY-AUG-CC-PV(Q+D)Z
    Number of shells: 180
    Number of basis function: 660
    Number of Cartesian functions: 840
    Spherical Harmonics?: true
    Max angular momentum: 4

   => Loading Basis Set <=

    Name: (HEAVY-AUG-CC-PV(Q+D)Z AUX)
    Role: JKFIT
    Keyword: DF_BASIS_SCF
    atoms 1, 4, 7, 10     entry C          line   214 file /opt/psi/4/master/share/psi4/basis/heavy-aug-cc-pvqz-jkfit.gbs 
    atoms 2-3, 5-6, 8, 11 entry H          line   116 file /opt/psi/4/master/share/psi4/basis/heavy-aug-cc-pvqz-jkfit.gbs 
    atoms 9, 12           entry O          line   354 file /opt/psi/4/master/share/psi4/basis/heavy-aug-cc-pvqz-jkfit.gbs 


  Computing basis projection from PCSEG-0 to HEAVY-AUG-CC-PV(Q+D)Z

  ==> Integral Setup <==

  ==> DiskDFJK: Density-Fitted J/K Matrices <==

    J tasked:                  Yes
    K tasked:                  Yes
    wK tasked:                  No
    OpenMP threads:              4
    Integrals threads:           4
    Memory [MiB]:              375
    Algorithm:                Disk
    Integral Cache:           NONE
    Schwarz Cutoff:          1E-12
    Fitting Condition:       1E-10

   => Auxiliary Basis Set <=

  Basis Set: (HEAVY-AUG-CC-PV(Q+D)Z AUX)
    Blend: HEAVY-AUG-CC-PVQZ-JKFIT
    Number of shells: 282
    Number of basis function: 1158
    Number of Cartesian functions: 1584
    Spherical Harmonics?: true
    Max angular momentum: 5

  Minimum eigenvalue in the overlap matrix is 1.0731194585E-06.
  Reciprocal condition number of the overlap matrix is 6.8701064618E-08.
    Using symmetric orthogonalization.

  ==> Pre-Iterations <==

  SCF Guess: Orbitals guess was supplied from a previous computation.

   -------------------------
    Irrep   Nso     Nmo    
   -------------------------
     A        660     660 
   -------------------------
    Total     660     660
   -------------------------

  ==> Iterations <==

                           Total Energy        Delta E     RMS |[F,P]|

   @DF-RHF iter   0:  -304.22023781221992   -3.04220e+02   4.49016e-03 
   @DF-RHF iter   1:  -304.73496029404890   -5.14722e-01   3.39660e-04 DIIS
   @DF-RHF iter   2:  -304.75112006633935   -1.61598e-02   1.55068e-04 DIIS
   @DF-RHF iter   3:  -304.75504296189229   -3.92290e-03   2.79151e-05 DIIS
   @DF-RHF iter   4:  -304.75531653521375   -2.73573e-04   7.97080e-06 DIIS
   @DF-RHF iter   5:  -304.75533778270693   -2.12475e-05   3.37461e-06 DIIS
   @DF-RHF iter   6:  -304.75534105490408   -3.27220e-06   8.32404e-07 DIIS
   @DF-RHF iter   7:  -304.75534133879762   -2.83894e-07   1.75607e-07 DIIS
   @DF-RHF iter   8:  -304.75534135266452   -1.38669e-08   4.59463e-08 DIIS
   @DF-RHF iter   9:  -304.75534135370981   -1.04529e-09   1.49441e-08 DIIS
   @DF-RHF iter  10:  -304.75534135379849   -8.86757e-11   3.66673e-09 DIIS
   @DF-RHF iter  11:  -304.75534135380559   -7.10543e-12   9.22016e-10 DIIS
   @DF-RHF iter  12:  -304.75534135380445    1.13687e-12   2.66523e-10 DIIS
   @DF-RHF iter  13:  -304.75534135380440    5.68434e-14   4.37312e-11 DIIS
  Energy and wave function converged.


  ==> Post-Iterations <==

    Orbital Energies [Eh]
    ---------------------

    Doubly Occupied:                                                      

       1A    -20.564267     2A    -20.564228     3A    -11.346946  
       4A    -11.346833     5A    -11.235188     6A    -11.234614  
       7A     -1.500577     8A     -1.295897     9A     -1.066786  
      10A     -0.989828    11A     -0.810495    12A     -0.787499  
      13A     -0.748947    14A     -0.676435    15A     -0.657132  
      16A     -0.645479    17A     -0.537476    18A     -0.525329  
      19A     -0.519466    20A     -0.511825    21A     -0.508761  
      22A     -0.460146    23A     -0.431688  

    Virtual:                                                              

      24A      0.041663    25A      0.042968    26A      0.050522  
      27A      0.062643    28A      0.063960    29A      0.079818  
      30A      0.080063    31A      0.083462    32A      0.101513  
      33A      0.110291    34A      0.111769    35A      0.112236  
      36A      0.139395    37A      0.151951    38A      0.166517  
      39A      0.171523    40A      0.178377    41A      0.178845  
      42A      0.188755    43A      0.189002    44A      0.199235  
      45A      0.207555    46A      0.226256    47A      0.227066  
      48A      0.230136    49A      0.258065    50A      0.261536  
      51A      0.270710    52A      0.271363    53A      0.272917  
      54A      0.287053    55A      0.288259    56A      0.291631  
      57A      0.301301    58A      0.316714    59A      0.319889  
      60A      0.325846    61A      0.333547    62A      0.338455  
      63A      0.356646    64A      0.358177    65A      0.370131  
      66A      0.381333    67A      0.388269    68A      0.390847  
      69A      0.391757    70A      0.392687    71A      0.399302  
      72A      0.399357    73A      0.413639    74A      0.420629  
      75A      0.421960    76A      0.440255    77A      0.452928  
      78A      0.457723    79A      0.465739    80A      0.495132  
      81A      0.517057    82A      0.518916    83A      0.523879  
      84A      0.528065    85A      0.550647    86A      0.572819  
      87A      0.575612    88A      0.586228    89A      0.590197  
      90A      0.598468    91A      0.600911    92A      0.614754  
      93A      0.629704    94A      0.642229    95A      0.656515  
      96A      0.659809    97A      0.686934    98A      0.690329  
      99A      0.697297   100A      0.704698   101A      0.716267  
     102A      0.721646   103A      0.735085   104A      0.744946  
     105A      0.759867   106A      0.766530   107A      0.790064  
     108A      0.791549   109A      0.794904   110A      0.796324  
     111A      0.828599   112A      0.832239   113A      0.833922  
     114A      0.850101   115A      0.860695   116A      0.876215  
     117A      0.885284   118A      0.898066   119A      0.920681  
     120A      0.939375   121A      0.948117   122A      0.960216  
     123A      0.960922   124A      0.987441   125A      1.002436  
     126A      1.010083   127A      1.012654   128A      1.017624  
     129A      1.035006   130A      1.035358   131A      1.047536  
     132A      1.060708   133A      1.071442   134A      1.074903  
     135A      1.098036   136A      1.114300   137A      1.129132  
     138A      1.140884   139A      1.154514   140A      1.160386  
     141A      1.160923   142A      1.166868   143A      1.167533  
     144A      1.177423   145A      1.190965   146A      1.198651  
     147A      1.209794   148A      1.222596   149A      1.230969  
     150A      1.235168   151A      1.238416   152A      1.240280  
     153A      1.246725   154A      1.276531   155A      1.278424  
     156A      1.289123   157A      1.289607   158A      1.306533  
     159A      1.315476   160A      1.329632   161A      1.371358  
     162A      1.373683   163A      1.410102   164A      1.410932  
     165A      1.436431   166A      1.442550   167A      1.459595  
     168A      1.469969   169A      1.477042   170A      1.487208  
     171A      1.490801   172A      1.510037   173A      1.525688  
     174A      1.534623   175A      1.545179   176A      1.594701  
     177A      1.595299   178A      1.620350   179A      1.622877  
     180A      1.626180   181A      1.626706   182A      1.646728  
     183A      1.684272   184A      1.686627   185A      1.701479  
     186A      1.723986   187A      1.727677   188A      1.734210  
     189A      1.754722   190A      1.777314   191A      1.779379  
     192A      1.814091   193A      1.867168   194A      1.875361  
     195A      1.887257   196A      1.898928   197A      1.909288  
     198A      1.927972   199A      1.960777   200A      1.968457  
     201A      1.998819   202A      2.000480   203A      2.017446  
     204A      2.022445   205A      2.027005   206A      2.029876  
     207A      2.035220   208A      2.039034   209A      2.044961  
     210A      2.106304   211A      2.116031   212A      2.126251  
     213A      2.142380   214A      2.146029   215A      2.173553  
     216A      2.189813   217A      2.189947   218A      2.212239  
     219A      2.254996   220A      2.261599   221A      2.270447  
     222A      2.296189   223A      2.301437   224A      2.309500  
     225A      2.339443   226A      2.342057   227A      2.362315  
     228A      2.364505   229A      2.366140   230A      2.377014  
     231A      2.390793   232A      2.400782   233A      2.407134  
     234A      2.423200   235A      2.442812   236A      2.448226  
     237A      2.460588   238A      2.487622   239A      2.492491  
     240A      2.518748   241A      2.527681   242A      2.536813  
     243A      2.547351   244A      2.561457   245A      2.590024  
     246A      2.594534   247A      2.622061   248A      2.634862  
     249A      2.635229   250A      2.648723   251A      2.666431  
     252A      2.683437   253A      2.701741   254A      2.719546  
     255A      2.734253   256A      2.735120   257A      2.753861  
     258A      2.766171   259A      2.766630   260A      2.802441  
     261A      2.807259   262A      2.807832   263A      2.835731  
     264A      2.861633   265A      2.870219   266A      2.923680  
     267A      2.941339   268A      2.945487   269A      2.970817  
     270A      2.977401   271A      2.988995   272A      2.992674  
     273A      3.010423   274A      3.033511   275A      3.043871  
     276A      3.051704   277A      3.078560   278A      3.083733  
     279A      3.083993   280A      3.106142   281A      3.111625  
     282A      3.137783   283A      3.148404   284A      3.156295  
     285A      3.175171   286A      3.190117   287A      3.229325  
     288A      3.249828   289A      3.260150   290A      3.270390  
     291A      3.291254   292A      3.297485   293A      3.322776  
     294A      3.364436   295A      3.368811   296A      3.400773  
     297A      3.403493   298A      3.406602   299A      3.434459  
     300A      3.457097   301A      3.465026   302A      3.480831  
     303A      3.503669   304A      3.523780   305A      3.537504  
     306A      3.554161   307A      3.574736   308A      3.599776  
     309A      3.614106   310A      3.619476   311A      3.641407  
     312A      3.664468   313A      3.694066   314A      3.707220  
     315A      3.716512   316A      3.748804   317A      3.754320  
     318A      3.757746   319A      3.810071   320A      3.836557  
     321A      3.846479   322A      3.847154   323A      3.877010  
     324A      3.909157   325A      3.910758   326A      3.921728  
     327A      3.951638   328A      3.965106   329A      3.984604  
     330A      4.043447   331A      4.048589   332A      4.051424  
     333A      4.062920   334A      4.085754   335A      4.100920  
     336A      4.121186   337A      4.139495   338A      4.157965  
     339A      4.172965   340A      4.203973   341A      4.206243  
     342A      4.219846   343A      4.243283   344A      4.250354  
     345A      4.276900   346A      4.296062   347A      4.317224  
     348A      4.337153   349A      4.340504   350A      4.364743  
     351A      4.408864   352A      4.435261   353A      4.446988  
     354A      4.457680   355A      4.469963   356A      4.490614  
     357A      4.500548   358A      4.513292   359A      4.525615  
     360A      4.542325   361A      4.570694   362A      4.598296  
     363A      4.637813   364A      4.661983   365A      4.676477  
     366A      4.698868   367A      4.699255   368A      4.707809  
     369A      4.720029   370A      4.747051   371A      4.758378  
     372A      4.763690   373A      4.788916   374A      4.830935  
     375A      4.835521   376A      4.835562   377A      4.848769  
     378A      4.860445   379A      4.913541   380A      4.944754  
     381A      4.988916   382A      5.007495   383A      5.010523  
     384A      5.035576   385A      5.062174   386A      5.124539  
     387A      5.171870   388A      5.175447   389A      5.185936  
     390A      5.245391   391A      5.255448   392A      5.257929  
     393A      5.285547   394A      5.295763   395A      5.311402  
     396A      5.347850   397A      5.368072   398A      5.391548  
     399A      5.424082   400A      5.503390   401A      5.525560  
     402A      5.555169   403A      5.596707   404A      5.637469  
     405A      5.659875   406A      5.660867   407A      5.677836  
     408A      5.794071   409A      5.837391   410A      5.838800  
     411A      5.844712   412A      5.909743   413A      5.976658  
     414A      6.039152   415A      6.108078   416A      6.148189  
     417A      6.192134   418A      6.220852   419A      6.234462  
     420A      6.242118   421A      6.296679   422A      6.339912  
     423A      6.344613   424A      6.348934   425A      6.372153  
     426A      6.399515   427A      6.422388   428A      6.464130  
     429A      6.490279   430A      6.496944   431A      6.514420  
     432A      6.526588   433A      6.539234   434A      6.582709  
     435A      6.587147   436A      6.618969   437A      6.642151  
     438A      6.647953   439A      6.656045   440A      6.690197  
     441A      6.701883   442A      6.705820   443A      6.717307  
     444A      6.754939   445A      6.774351   446A      6.786771  
     447A      6.815616   448A      6.821264   449A      6.856791  
     450A      6.896939   451A      6.909473   452A      6.919890  
     453A      6.923522   454A      6.923963   455A      6.947210  
     456A      6.980471   457A      6.996288   458A      7.014893  
     459A      7.040757   460A      7.095903   461A      7.107701  
     462A      7.111124   463A      7.138741   464A      7.160153  
     465A      7.180922   466A      7.195478   467A      7.208046  
     468A      7.223378   469A      7.225300   470A      7.254909  
     471A      7.280974   472A      7.312268   473A      7.360600  
     474A      7.369709   475A      7.371903   476A      7.420607  
     477A      7.440625   478A      7.442365   479A      7.477895  
     480A      7.541673   481A      7.546808   482A      7.601850  
     483A      7.605808   484A      7.617981   485A      7.642176  
     486A      7.721661   487A      7.732676   488A      7.751411  
     489A      7.757173   490A      7.785397   491A      7.818001  
     492A      7.841015   493A      7.847999   494A      7.860335  
     495A      7.925067   496A      7.951567   497A      7.954046  
     498A      7.989650   499A      7.999523   500A      8.022933  
     501A      8.026472   502A      8.049731   503A      8.094278  
     504A      8.117493   505A      8.153362   506A      8.157765  
     507A      8.198782   508A      8.206968   509A      8.328795  
     510A      8.336934   511A      8.342487   512A      8.355883  
     513A      8.389680   514A      8.421672   515A      8.425982  
     516A      8.484876   517A      8.508807   518A      8.510786  
     519A      8.530625   520A      8.555959   521A      8.568236  
     522A      8.595070   523A      8.611163   524A      8.616657  
     525A      8.656438   526A      8.697063   527A      8.712621  
     528A      8.720857   529A      8.766448   530A      8.816158  
     531A      8.831808   532A      8.841011   533A      8.843683  
     534A      8.847092   535A      8.891072   536A      8.901374  
     537A      8.928981   538A      8.942844   539A      8.958935  
     540A      9.010270   541A      9.017634   542A      9.029687  
     543A      9.038425   544A      9.048715   545A      9.067199  
     546A      9.086130   547A      9.110925   548A      9.118768  
     549A      9.173100   550A      9.179993   551A      9.191389  
     552A      9.236899   553A      9.253060   554A      9.314465  
     555A      9.345382   556A      9.353066   557A      9.357138  
     558A      9.368386   559A      9.399606   560A      9.453602  
     561A      9.504810   562A      9.516282   563A      9.528602  
     564A      9.557416   565A      9.651742   566A      9.661047  
     567A      9.727512   568A      9.760714   569A      9.775126  
     570A      9.797512   571A      9.835036   572A      9.898246  
     573A      9.924937   574A      9.932812   575A      9.961965  
     576A     10.071595   577A     10.115468   578A     10.233407  
     579A     10.243543   580A     10.256752   581A     10.293631  
     582A     10.418904   583A     10.480091   584A     10.502144  
     585A     10.514451   586A     10.587856   587A     10.626086  
     588A     10.647685   589A     10.781964   590A     10.791026  
     591A     10.821524   592A     10.826139   593A     10.968481  
     594A     11.004999   595A     11.059118   596A     11.083573  
     597A     11.097460   598A     11.106685   599A     11.146328  
     600A     11.151464   601A     11.176732   602A     11.219954  
     603A     11.235321   604A     11.258169   605A     11.351225  
     606A     11.387064   607A     11.457228   608A     11.464708  
     609A     11.512595   610A     11.513575   611A     11.526380  
     612A     11.557380   613A     11.635235   614A     11.657301  
     615A     11.743601   616A     11.829035   617A     11.848098  
     618A     11.884077   619A     11.908301   620A     11.927401  
     621A     12.220272   622A     12.278090   623A     12.317006  
     624A     12.399564   625A     12.663526   626A     12.677157  
     627A     12.821862   628A     12.908816   629A     12.949561  
     630A     13.057756   631A     13.097098   632A     13.113218  
     633A     13.195944   634A     13.235536   635A     13.266213  
     636A     13.357811   637A     13.389274   638A     13.400905  
     639A     13.425482   640A     13.531434   641A     13.535185  
     642A     13.554567   643A     13.741930   644A     13.751023  
     645A     13.819409   646A     13.820561   647A     13.866588  
     648A     13.932513   649A     14.007242   650A     14.018539  
     651A     14.163753   652A     14.172607   653A     14.730145  
     654A     14.926356   655A     27.315472   656A     27.904496  
     657A     28.050916   658A     28.603490   659A     44.849071  
     660A     45.764056  

    Final Occupation by Irrep:
              A 
    DOCC [    23 ]

  @DF-RHF Final Energy:  -304.75534135380440

   => Energetics <=

    Nuclear Repulsion Energy =            258.0591064002991857
    One-Electron Energy =                -927.6972138194929585
    Two-Electron Energy =                 364.8827660653894327
    Total Energy =                       -304.7553413538043969

Computation Completed


Properties will be evaluated at   0.000000,   0.000000,   0.000000 [a0]

Properties computed using the SCF density matrix

  Nuclear Dipole Moment: [e a0]
     X:    -4.4797      Y:    -0.0005      Z:    -0.0002

  Electronic Dipole Moment: [e a0]
     X:     3.7423      Y:     0.0009      Z:     0.0001

  Dipole Moment: [e a0]
     X:    -0.7374      Y:     0.0003      Z:    -0.0000     Total:     0.7374

  Dipole Moment: [D]
     X:    -1.8743      Y:     0.0008      Z:    -0.0001     Total:     1.8743


*** tstop() called on n032 at Fri Jun  5 11:43:55 2020
Module time:
	user time   =     241.23 seconds =       4.02 minutes
	system time =       7.53 seconds =       0.13 minutes
	total time  =         64 seconds =       1.07 minutes
Total time:
	user time   =     241.23 seconds =       4.02 minutes
	system time =       7.53 seconds =       0.13 minutes
	total time  =         64 seconds =       1.07 minutes

*** tstart() called on n032
*** at Fri Jun  5 11:43:55 2020


  //>>>>>>>>>>>>>>>>>>>>>>>>>>>>>>>>>>>//
  //               DFMP2               //
  //<<<<<<<<<<<<<<<<<<<<<<<<<<<<<<<<<<<//

   => Loading Basis Set <=

    Name: (HEAVY-AUG-CC-PV(Q+D)Z AUX)
    Role: RIFIT
    Keyword: DF_BASIS_MP2
    atoms 1, 4, 7, 10     entry C          line   180 file /opt/psi/4/master/share/psi4/basis/heavy-aug-cc-pvqz-ri.gbs 
    atoms 2-3, 5-6, 8, 11 entry H          line    44 file /opt/psi/4/master/share/psi4/basis/heavy-aug-cc-pvqz-ri.gbs 
    atoms 9, 12           entry O          line   328 file /opt/psi/4/master/share/psi4/basis/heavy-aug-cc-pvqz-ri.gbs 

	 --------------------------------------------------------
	                          DF-MP2                         
	      2nd-Order Density-Fitted Moller-Plesset Theory     
	              RMP2 Wavefunction,   4 Threads             
	                                                         
	        Rob Parrish, Justin Turney, Andy Simmonett,      
	           Ed Hohenstein, and C. David Sherrill          
	 --------------------------------------------------------

   => Auxiliary Basis Set <=

  Basis Set: (HEAVY-AUG-CC-PV(Q+D)Z AUX)
    Blend: HEAVY-AUG-CC-PVQZ-RI
    Number of shells: 306
    Number of basis function: 1338
    Number of Cartesian functions: 1842
    Spherical Harmonics?: true
    Max angular momentum: 5

	 --------------------------------------------------------
	                 NBF =   660, NAUX =  1338
	 --------------------------------------------------------
	   CLASS    FOCC     OCC    AOCC    AVIR     VIR    FVIR
	   PAIRS       6      23      17     637     637       0
	 --------------------------------------------------------

	-----------------------------------------------------------
	 ==================> DF-MP2 Energies <==================== 
	-----------------------------------------------------------
	 Reference Energy          =    -304.7553413538043969 [Eh]
	 Singles Energy            =      -0.0000000000000000 [Eh]
	 Same-Spin Energy          =      -0.2937784580363814 [Eh]
	 Opposite-Spin Energy      =      -0.9223996375605675 [Eh]
	 Correlation Energy        =      -1.2161780955969488 [Eh]
	 Total Energy              =    -305.9715194494013417 [Eh]
	-----------------------------------------------------------
	 ================> DF-SCS-MP2 Energies <================== 
	-----------------------------------------------------------
	 SCS Same-Spin Scale       =       0.3333333333333333 [-]
	 SCS Opposite-Spin Scale   =       1.2000000000000000 [-]
	 SCS Same-Spin Energy      =      -0.0979261526787938 [Eh]
	 SCS Opposite-Spin Energy  =      -1.1068795650726810 [Eh]
	 SCS Correlation Energy    =      -1.2048057177514748 [Eh]
	 SCS Total Energy          =    -305.9601470715558662 [Eh]
	-----------------------------------------------------------


*** tstop() called on n032 at Fri Jun  5 11:44:07 2020
Module time:
	user time   =      46.50 seconds =       0.78 minutes
	system time =       0.42 seconds =       0.01 minutes
	total time  =         12 seconds =       0.20 minutes
Total time:
	user time   =     287.74 seconds =       4.80 minutes
	system time =       7.95 seconds =       0.13 minutes
	total time  =         76 seconds =       1.27 minutes

========================OPTAVC-XTPL==========================

MP2/QZ correlation energy -1.2161780955969488
SCF/QZ reference energy -304.7553413538044


=============================================================

Scratch directory: /tmp/

Scratch directory: /tmp/
    SCF Algorithm Type (re)set to DF.

*** tstart() called on n032
*** at Fri Jun  5 11:44:08 2020


  //>>>>>>>>>>>>>>>>>>>>>>>>>>>>>>>>>>>//
  //      Guess SCF, pcseg-0 Basis     //
  //<<<<<<<<<<<<<<<<<<<<<<<<<<<<<<<<<<<//

   => Loading Basis Set <=

    Name: PCSEG-0
    Role: ORBITAL
    Keyword: BASIS
    atoms 1, 4, 7, 10     entry C          line    71 file /opt/psi/4/master/share/psi4/basis/pcseg-0.gbs 
    atoms 2-3, 5-6, 8, 11 entry H          line    13 file /opt/psi/4/master/share/psi4/basis/pcseg-0.gbs 
    atoms 9, 12           entry O          line   103 file /opt/psi/4/master/share/psi4/basis/pcseg-0.gbs 


         ---------------------------------------------------------
                           SCF Castup computation                  
         ---------------------------------------------------------
                                   SCF
               by Justin Turney, Rob Parrish, Andy Simmonett
                          and Daniel G. A. Smith
                              RHF Reference
                        4 Threads,    500 MiB Core
         ---------------------------------------------------------

  ==> Geometry <==

    Molecular point group: c1
    Full point group: C1

    Geometry (in Angstrom), charge = 0, multiplicity = 1:

       Center              X                  Y                   Z               Mass       
    ------------   -----------------  -----------------  -----------------  -----------------
         C           -1.169969463277    -0.774075714550    -0.000125580240    12.000000000000
         H           -1.617202611977    -1.211544387650    -0.890367767540     1.007825032230
         H           -1.617274396477    -1.211731322050     0.889988080060     1.007825032230
         C           -1.170087777377     0.773896028650     0.000044791660    12.000000000000
         H           -1.617450892977     1.211295070450     0.890255761560     1.007825032230
         H           -1.617399631177     1.211482151650    -0.890099389140     1.007825032230
         C            0.356217998898     0.920226143746     0.000100313642    12.000000000000
         H            0.842159141640     1.891510988652     0.000208936764     1.007825032230
         O            0.761188604887     0.000087227833    -1.017879421134    15.994914619570
         C            0.356722186985    -0.919970417730    -0.000075752855    12.000000000000
         H            0.840864061638    -1.891586794150    -0.000150389688     1.007825032230
         O            0.761117862597    -0.000108090366     1.017931987267    15.994914619570

  Running in c1 symmetry.

  Rotational constants: A =      0.20029  B =      0.16406  C =      0.14757 [cm^-1]
  Rotational constants: A =   6004.67163  B =   4918.49219  C =   4424.03748 [MHz]
  Nuclear repulsion =  258.059106400299186

  Charge       = 0
  Multiplicity = 1
  Electrons    = 46
  Nalpha       = 23
  Nbeta        = 23

  ==> Algorithm <==

  SCF Algorithm Type is DF.
  DIIS enabled.
  MOM disabled.
  Fractional occupation disabled.
  Guess Type is SAD.
  Energy threshold   = 1.00e-10
  Density threshold  = 1.00e-10
  Integral threshold = 0.00e+00

  ==> Primary Basis <==

  Basis Set: PCSEG-0
    Blend: PCSEG-0
    Number of shells: 42
    Number of basis function: 66
    Number of Cartesian functions: 66
    Spherical Harmonics?: true
    Max angular momentum: 1

   => Loading Basis Set <=

    Name: (PCSEG-0 AUX)
    Role: JKFIT
    Keyword: DF_BASIS_SCF
    atoms 1, 4, 7, 10     entry C          line   198 file /opt/psi/4/master/share/psi4/basis/def2-universal-jkfit.gbs 
    atoms 2-3, 5-6, 8, 11 entry H          line    18 file /opt/psi/4/master/share/psi4/basis/def2-universal-jkfit.gbs 
    atoms 9, 12           entry O          line   318 file /opt/psi/4/master/share/psi4/basis/def2-universal-jkfit.gbs 

  ==> Integral Setup <==

  ==> DiskDFJK: Density-Fitted J/K Matrices <==

    J tasked:                  Yes
    K tasked:                  Yes
    wK tasked:                  No
    OpenMP threads:              4
    Integrals threads:           4
    Memory [MiB]:              375
    Algorithm:                Core
    Integral Cache:           NONE
    Schwarz Cutoff:          1E-12
    Fitting Condition:       1E-10

   => Auxiliary Basis Set <=

  Basis Set: (PCSEG-0 AUX)
    Blend: DEF2-UNIVERSAL-JKFIT
    Number of shells: 186
    Number of basis function: 562
    Number of Cartesian functions: 662
    Spherical Harmonics?: true
    Max angular momentum: 4

  Minimum eigenvalue in the overlap matrix is 1.2753034882E-03.
  Reciprocal condition number of the overlap matrix is 2.0993887168E-04.
    Using symmetric orthogonalization.

  ==> Pre-Iterations <==

  SCF Guess: Superposition of Atomic Densities via on-the-fly atomic UHF (no occupation information).

   -------------------------
    Irrep   Nso     Nmo    
   -------------------------
     A         66      66 
   -------------------------
    Total      66      66
   -------------------------

  ==> Iterations <==

                           Total Energy        Delta E     RMS |[F,P]|

   @DF-RHF iter SAD:  -303.78301130297592   -3.03783e+02   0.00000e+00 
   @DF-RHF iter   1:  -303.56516863786021    2.17843e-01   7.20998e-03 DIIS
   @DF-RHF iter   2:  -303.66407283679644   -9.89042e-02   3.86831e-03 DIIS
   @DF-RHF iter   3:  -303.68843794468626   -2.43651e-02   6.09996e-04 DIIS
   @DF-RHF iter   4:  -303.68957875856916   -1.14081e-03   1.89768e-04 DIIS
   @DF-RHF iter   5:  -303.68966727422821   -8.85157e-05   4.01214e-05 DIIS
   @DF-RHF iter   6:  -303.68967439571765   -7.12149e-06   8.09409e-06 DIIS
   @DF-RHF iter   7:  -303.68967476762566   -3.71908e-07   1.67176e-06 DIIS
   @DF-RHF iter   8:  -303.68967478074234   -1.31167e-08   5.23989e-07 DIIS
   @DF-RHF iter   9:  -303.68967478207890   -1.33656e-09   1.00229e-07 DIIS
   @DF-RHF iter  10:  -303.68967478214216   -6.32667e-11   1.69419e-08 DIIS
   @DF-RHF iter  11:  -303.68967478214449   -2.33058e-12   2.47245e-09 DIIS
   @DF-RHF iter  12:  -303.68967478214392    5.68434e-13   3.83226e-10 DIIS
   @DF-RHF iter  13:  -303.68967478214410   -1.70530e-13   9.24330e-11 DIIS
  Energy and wave function converged.


  ==> Post-Iterations <==

    Orbital Energies [Eh]
    ---------------------

    Doubly Occupied:                                                      

       1A    -20.583808     2A    -20.583741     3A    -11.368441  
       4A    -11.368348     5A    -11.254774     6A    -11.254369  
       7A     -1.548591     8A     -1.317191     9A     -1.091367  
      10A     -1.011022    11A     -0.822296    12A     -0.787985  
      13A     -0.770481    14A     -0.684601    15A     -0.664317  
      16A     -0.661772    17A     -0.554934    18A     -0.534525  
      19A     -0.528143    20A     -0.525371    21A     -0.518322  
      22A     -0.467502    23A     -0.441472  

    Virtual:                                                              

      24A      0.203629    25A      0.232759    26A      0.236696  
      27A      0.242097    28A      0.254675    29A      0.267626  
      30A      0.315976    31A      0.352134    32A      0.354455  
      33A      0.387999    34A      0.408979    35A      0.474001  
      36A      0.575789    37A      0.796180    38A      0.799965  
      39A      0.821132    40A      0.924843    41A      0.933906  
      42A      0.944601    43A      0.951628    44A      1.004305  
      45A      1.005387    46A      1.033489    47A      1.061269  
      48A      1.071627    49A      1.136341    50A      1.149730  
      51A      1.171718    52A      1.172722    53A      1.210688  
      54A      1.239114    55A      1.422290    56A      1.454241  
      57A      1.484847    58A      1.525889    59A      1.692016  
      60A      1.710096    61A      1.929946    62A      1.952618  
      63A      2.144724    64A      2.303223    65A      2.379099  
      66A      2.449179  

    Final Occupation by Irrep:
              A 
    DOCC [    23 ]

  @DF-RHF Final Energy:  -303.68967478214410

   => Energetics <=

    Nuclear Repulsion Energy =            258.0591064002991857
    One-Electron Energy =                -924.8108131521464657
    Two-Electron Energy =                 363.0620319697031277
    Total Energy =                       -303.6896747821440954

Computation Completed

  //>>>>>>>>>>>>>>>>>>>>>>>>>>>>>>>>>>>//
  //                SCF                //
  //<<<<<<<<<<<<<<<<<<<<<<<<<<<<<<<<<<<//

   => Loading Basis Set <=

    Name: HEAVY-AUG-CC-PV(T+D)Z
    Role: ORBITAL
    Keyword: BASIS
    atoms 1, 4, 7, 10     entry C          line   273 file /opt/psi/4/master/share/psi4/basis/heavy-aug-cc-pv_tpd_z.gbs 
    atoms 2-3, 5-6, 8, 11 entry H          line    86 file /opt/psi/4/master/share/psi4/basis/heavy-aug-cc-pv_tpd_z.gbs 
    atoms 9, 12           entry O          line   365 file /opt/psi/4/master/share/psi4/basis/heavy-aug-cc-pv_tpd_z.gbs 


         ---------------------------------------------------------
                                   SCF
               by Justin Turney, Rob Parrish, Andy Simmonett
                          and Daniel G. A. Smith
                              RHF Reference
                        4 Threads,    500 MiB Core
         ---------------------------------------------------------

  ==> Geometry <==

    Molecular point group: c1
    Full point group: C1

    Geometry (in Angstrom), charge = 0, multiplicity = 1:

       Center              X                  Y                   Z               Mass       
    ------------   -----------------  -----------------  -----------------  -----------------
         C           -1.169969463277    -0.774075714550    -0.000125580240    12.000000000000
         H           -1.617202611977    -1.211544387650    -0.890367767540     1.007825032230
         H           -1.617274396477    -1.211731322050     0.889988080060     1.007825032230
         C           -1.170087777377     0.773896028650     0.000044791660    12.000000000000
         H           -1.617450892977     1.211295070450     0.890255761560     1.007825032230
         H           -1.617399631177     1.211482151650    -0.890099389140     1.007825032230
         C            0.356217998898     0.920226143746     0.000100313642    12.000000000000
         H            0.842159141640     1.891510988652     0.000208936764     1.007825032230
         O            0.761188604887     0.000087227833    -1.017879421134    15.994914619570
         C            0.356722186985    -0.919970417730    -0.000075752855    12.000000000000
         H            0.840864061638    -1.891586794150    -0.000150389688     1.007825032230
         O            0.761117862597    -0.000108090366     1.017931987267    15.994914619570

  Running in c1 symmetry.

  Rotational constants: A =      0.20029  B =      0.16406  C =      0.14757 [cm^-1]
  Rotational constants: A =   6004.67163  B =   4918.49219  C =   4424.03748 [MHz]
  Nuclear repulsion =  258.059106400299186

  Charge       = 0
  Multiplicity = 1
  Electrons    = 46
  Nalpha       = 23
  Nbeta        = 23

  ==> Algorithm <==

  SCF Algorithm Type is DF.
  DIIS enabled.
  MOM disabled.
  Fractional occupation disabled.
  Guess Type is SAD.
  Energy threshold   = 1.00e-10
  Density threshold  = 1.00e-10
  Integral threshold = 0.00e+00

  ==> Primary Basis <==

  Basis Set: HEAVY-AUG-CC-PV(T+D)Z
    Blend: HEAVY-AUG-CC-PV(T+D)Z
    Number of shells: 120
    Number of basis function: 360
    Number of Cartesian functions: 420
    Spherical Harmonics?: true
    Max angular momentum: 3

   => Loading Basis Set <=

    Name: (HEAVY-AUG-CC-PV(T+D)Z AUX)
    Role: JKFIT
    Keyword: DF_BASIS_SCF
    atoms 1, 4, 7, 10     entry C          line   200 file /opt/psi/4/master/share/psi4/basis/heavy-aug-cc-pvtz-jkfit.gbs 
    atoms 2-3, 5-6, 8, 11 entry H          line   116 file /opt/psi/4/master/share/psi4/basis/heavy-aug-cc-pvtz-jkfit.gbs 
    atoms 9, 12           entry O          line   324 file /opt/psi/4/master/share/psi4/basis/heavy-aug-cc-pvtz-jkfit.gbs 


  Computing basis projection from PCSEG-0 to HEAVY-AUG-CC-PV(T+D)Z

  ==> Integral Setup <==

  ==> DiskDFJK: Density-Fitted J/K Matrices <==

    J tasked:                  Yes
    K tasked:                  Yes
    wK tasked:                  No
    OpenMP threads:              4
    Integrals threads:           4
    Memory [MiB]:              375
    Algorithm:                Disk
    Integral Cache:           NONE
    Schwarz Cutoff:          1E-12
    Fitting Condition:       1E-10

   => Auxiliary Basis Set <=

  Basis Set: (HEAVY-AUG-CC-PV(T+D)Z AUX)
    Blend: HEAVY-AUG-CC-PVTZ-JKFIT
    Number of shells: 240
    Number of basis function: 804
    Number of Cartesian functions: 996
    Spherical Harmonics?: true
    Max angular momentum: 4

  Minimum eigenvalue in the overlap matrix is 5.4652928753E-06.
  Reciprocal condition number of the overlap matrix is 3.9883547786E-07.
    Using symmetric orthogonalization.

  ==> Pre-Iterations <==

  SCF Guess: Orbitals guess was supplied from a previous computation.

   -------------------------
    Irrep   Nso     Nmo    
   -------------------------
     A        360     360 
   -------------------------
    Total     360     360
   -------------------------

  ==> Iterations <==

                           Total Energy        Delta E     RMS |[F,P]|

   @DF-RHF iter   0:  -304.36013516904302   -3.04360e+02   4.19515e-03 
   @DF-RHF iter   1:  -304.71755017343276   -3.57415e-01   5.78098e-04 DIIS
   @DF-RHF iter   2:  -304.73284017074502   -1.52900e-02   2.73926e-04 DIIS
   @DF-RHF iter   3:  -304.73657284091763   -3.73267e-03   4.82437e-05 DIIS
   @DF-RHF iter   4:  -304.73683317673311   -2.60336e-04   1.47635e-05 DIIS
   @DF-RHF iter   5:  -304.73685291791827   -1.97412e-05   6.03776e-06 DIIS
   @DF-RHF iter   6:  -304.73685636429218   -3.44637e-06   1.40572e-06 DIIS
   @DF-RHF iter   7:  -304.73685660991265   -2.45620e-07   3.05520e-07 DIIS
   @DF-RHF iter   8:  -304.73685662298897   -1.30763e-08   8.05983e-08 DIIS
   @DF-RHF iter   9:  -304.73685662389528   -9.06311e-10   2.56920e-08 DIIS
   @DF-RHF iter  10:  -304.73685662398265   -8.73683e-11   6.20487e-09 DIIS
   @DF-RHF iter  11:  -304.73685662398714   -4.49063e-12   1.58739e-09 DIIS
   @DF-RHF iter  12:  -304.73685662398918   -2.04636e-12   4.53102e-10 DIIS
   @DF-RHF iter  13:  -304.73685662398839    7.95808e-13   7.21101e-11 DIIS
  Energy and wave function converged.


  ==> Post-Iterations <==

    Orbital Energies [Eh]
    ---------------------

    Doubly Occupied:                                                      

       1A    -20.567222     2A    -20.567185     3A    -11.348055  
       4A    -11.347944     5A    -11.236266     6A    -11.235695  
       7A     -1.501392     8A     -1.296697     9A     -1.067032  
      10A     -0.990112    11A     -0.810589    12A     -0.787654  
      13A     -0.748906    14A     -0.676335    15A     -0.657157  
      16A     -0.645330    17A     -0.537404    18A     -0.525176  
      19A     -0.519334    20A     -0.511749    21A     -0.508560  
      22A     -0.459881    23A     -0.431488  

    Virtual:                                                              

      24A      0.050447    25A      0.051285    26A      0.059478  
      27A      0.072112    28A      0.073463    29A      0.092422  
      30A      0.093438    31A      0.096770    32A      0.116631  
      33A      0.126403    34A      0.127459    35A      0.130111  
      36A      0.162131    37A      0.176390    38A      0.195503  
      39A      0.204214    40A      0.206623    41A      0.214151  
      42A      0.220957    43A      0.228218    44A      0.233709  
      45A      0.249496    46A      0.268198    47A      0.268869  
      48A      0.277003    49A      0.295905    50A      0.302174  
      51A      0.315481    52A      0.332107    53A      0.336035  
      54A      0.342703    55A      0.348390    56A      0.356996  
      57A      0.357133    58A      0.362816    59A      0.376024  
      60A      0.398583    61A      0.404085    62A      0.412810  
      63A      0.421481    64A      0.433685    65A      0.447108  
      66A      0.459427    67A      0.469092    68A      0.486556  
      69A      0.493134    70A      0.508519    71A      0.512556  
      72A      0.516740    73A      0.520728    74A      0.527737  
      75A      0.529247    76A      0.543569    77A      0.546163  
      78A      0.580540    79A      0.595856    80A      0.608105  
      81A      0.612139    82A      0.624805    83A      0.654821  
      84A      0.657311    85A      0.672090    86A      0.722616  
      87A      0.737343    88A      0.748536    89A      0.754101  
      90A      0.771653    91A      0.781583    92A      0.793707  
      93A      0.798214    94A      0.817380    95A      0.820124  
      96A      0.830049    97A      0.843568    98A      0.878388  
      99A      0.892130   100A      0.930674   101A      0.930808  
     102A      0.940200   103A      0.946336   104A      0.969995  
     105A      0.988367   106A      1.000220   107A      1.031658  
     108A      1.037671   109A      1.039040   110A      1.061912  
     111A      1.080510   112A      1.096422   113A      1.115894  
     114A      1.123202   115A      1.139092   116A      1.161591  
     117A      1.189177   118A      1.225291   119A      1.249061  
     120A      1.252495   121A      1.262833   122A      1.283239  
     123A      1.322966   124A      1.330800   125A      1.339035  
     126A      1.353403   127A      1.375094   128A      1.382793  
     129A      1.398440   130A      1.404115   131A      1.412833  
     132A      1.448311   133A      1.448464   134A      1.460226  
     135A      1.482083   136A      1.497972   137A      1.506733  
     138A      1.527436   139A      1.547136   140A      1.559743  
     141A      1.583242   142A      1.586120   143A      1.588776  
     144A      1.589905   145A      1.601569   146A      1.656031  
     147A      1.660747   148A      1.670489   149A      1.676498  
     150A      1.684863   151A      1.700112   152A      1.707933  
     153A      1.715550   154A      1.732217   155A      1.736693  
     156A      1.750070   157A      1.752685   158A      1.791788  
     159A      1.802592   160A      1.808657   161A      1.824093  
     162A      1.903493   163A      1.905600   164A      1.931428  
     165A      1.945178   166A      1.948937   167A      1.985333  
     168A      1.993380   169A      2.003801   170A      2.007535  
     171A      2.028262   172A      2.050913   173A      2.055252  
     174A      2.060865   175A      2.150938   176A      2.153444  
     177A      2.214237   178A      2.252046   179A      2.301743  
     180A      2.334778   181A      2.393284   182A      2.403141  
     183A      2.423968   184A      2.441855   185A      2.452448  
     186A      2.480782   187A      2.508096   188A      2.511679  
     189A      2.545177   190A      2.582228   191A      2.631979  
     192A      2.646491   193A      2.682769   194A      2.693466  
     195A      2.725388   196A      2.771258   197A      2.799248  
     198A      2.882281   199A      2.882982   200A      2.895536  
     201A      2.914563   202A      2.921058   203A      2.958408  
     204A      2.966143   205A      2.969388   206A      3.081380  
     207A      3.100059   208A      3.119447   209A      3.132216  
     210A      3.185610   211A      3.188775   212A      3.212354  
     213A      3.227452   214A      3.243580   215A      3.266797  
     216A      3.312118   217A      3.339155   218A      3.412745  
     219A      3.416193   220A      3.418075   221A      3.439959  
     222A      3.442830   223A      3.480455   224A      3.486292  
     225A      3.504090   226A      3.524230   227A      3.539260  
     228A      3.607046   229A      3.629187   230A      3.639464  
     231A      3.671397   232A      3.686149   233A      3.700695  
     234A      3.710638   235A      3.730001   236A      3.735836  
     237A      3.751713   238A      3.821135   239A      3.837258  
     240A      3.844473   241A      3.867465   242A      3.885161  
     243A      3.933362   244A      3.949922   245A      3.966247  
     246A      3.966624   247A      3.969482   248A      4.005252  
     249A      4.025693   250A      4.049984   251A      4.056409  
     252A      4.080190   253A      4.107437   254A      4.114414  
     255A      4.148179   256A      4.167673   257A      4.176425  
     258A      4.185499   259A      4.191675   260A      4.214581  
     261A      4.244397   262A      4.253136   263A      4.259850  
     264A      4.268405   265A      4.273904   266A      4.318274  
     267A      4.345797   268A      4.366850   269A      4.430016  
     270A      4.467548   271A      4.484197   272A      4.486559  
     273A      4.499637   274A      4.516140   275A      4.532170  
     276A      4.555122   277A      4.584286   278A      4.639061  
     279A      4.691040   280A      4.693660   281A      4.704110  
     282A      4.708703   283A      4.734640   284A      4.744954  
     285A      4.758352   286A      4.808779   287A      4.820618  
     288A      4.821546   289A      4.840717   290A      4.888925  
     291A      4.907500   292A      4.959161   293A      4.966416  
     294A      4.968264   295A      5.097277   296A      5.119909  
     297A      5.125608   298A      5.194140   299A      5.199697  
     300A      5.241035   301A      5.272342   302A      5.290033  
     303A      5.398140   304A      5.424306   305A      5.436494  
     306A      5.466956   307A      5.476298   308A      5.584146  
     309A      5.584833   310A      5.606121   311A      5.655296  
     312A      5.704452   313A      5.711097   314A      5.730413  
     315A      5.861004   316A      5.867242   317A      5.900038  
     318A      5.937720   319A      6.061357   320A      6.129931  
     321A      6.152689   322A      6.207158   323A      6.261319  
     324A      6.288929   325A      6.301559   326A      6.361031  
     327A      6.385360   328A      6.498181   329A      6.563411  
     330A      6.901381   331A      6.905823   332A      6.954799  
     333A      6.970592   334A      6.997811   335A      7.033133  
     336A      7.111095   337A      7.141383   338A      7.179651  
     339A      7.206428   340A      7.245375   341A      7.254605  
     342A      7.404423   343A      7.507362   344A      7.599791  
     345A      7.615068   346A      7.659798   347A      7.755232  
     348A      7.811055   349A      7.825009   350A      7.924654  
     351A      8.059389   352A      8.210042   353A      8.213971  
     354A      8.233744   355A     14.279142   356A     15.468407  
     357A     15.711475   358A     15.957695   359A     17.527777  
     360A     18.819885  

    Final Occupation by Irrep:
              A 
    DOCC [    23 ]

  @DF-RHF Final Energy:  -304.73685662398839

   => Energetics <=

    Nuclear Repulsion Energy =            258.0591064002991857
    One-Electron Energy =                -927.6375964109843153
    Two-Electron Energy =                 364.8416333866966852
    Total Energy =                       -304.7368566239883876

Computation Completed


Properties will be evaluated at   0.000000,   0.000000,   0.000000 [a0]

Properties computed using the SCF density matrix

  Nuclear Dipole Moment: [e a0]
     X:    -4.4797      Y:    -0.0005      Z:    -0.0002

  Electronic Dipole Moment: [e a0]
     X:     3.7419      Y:     0.0009      Z:     0.0001

  Dipole Moment: [e a0]
     X:    -0.7378      Y:     0.0003      Z:    -0.0000     Total:     0.7378

  Dipole Moment: [D]
     X:    -1.8754      Y:     0.0008      Z:    -0.0001     Total:     1.8754


*** tstop() called on n032 at Fri Jun  5 11:44:23 2020
Module time:
	user time   =      53.31 seconds =       0.89 minutes
	system time =       1.91 seconds =       0.03 minutes
	total time  =         15 seconds =       0.25 minutes
Total time:
	user time   =     341.44 seconds =       5.69 minutes
	system time =      10.07 seconds =       0.17 minutes
	total time  =         92 seconds =       1.53 minutes

*** tstart() called on n032
*** at Fri Jun  5 11:44:23 2020


  //>>>>>>>>>>>>>>>>>>>>>>>>>>>>>>>>>>>//
  //               DFMP2               //
  //<<<<<<<<<<<<<<<<<<<<<<<<<<<<<<<<<<<//

   => Loading Basis Set <=

    Name: (HEAVY-AUG-CC-PV(T+D)Z AUX)
    Role: RIFIT
    Keyword: DF_BASIS_MP2
    atoms 1, 4, 7, 10     entry C          line   148 file /opt/psi/4/master/share/psi4/basis/heavy-aug-cc-pvtz-ri.gbs 
    atoms 2-3, 5-6, 8, 11 entry H          line    44 file /opt/psi/4/master/share/psi4/basis/heavy-aug-cc-pvtz-ri.gbs 
    atoms 9, 12           entry O          line   264 file /opt/psi/4/master/share/psi4/basis/heavy-aug-cc-pvtz-ri.gbs 

	 --------------------------------------------------------
	                          DF-MP2                         
	      2nd-Order Density-Fitted Moller-Plesset Theory     
	              RMP2 Wavefunction,   4 Threads             
	                                                         
	        Rob Parrish, Justin Turney, Andy Simmonett,      
	           Ed Hohenstein, and C. David Sherrill          
	 --------------------------------------------------------

   => Auxiliary Basis Set <=

  Basis Set: (HEAVY-AUG-CC-PV(T+D)Z AUX)
    Blend: HEAVY-AUG-CC-PVTZ-RI
    Number of shells: 228
    Number of basis function: 816
    Number of Cartesian functions: 1026
    Spherical Harmonics?: true
    Max angular momentum: 4

	 --------------------------------------------------------
	                 NBF =   360, NAUX =   816
	 --------------------------------------------------------
	   CLASS    FOCC     OCC    AOCC    AVIR     VIR    FVIR
	   PAIRS       6      23      17     337     337       0
	 --------------------------------------------------------

	-----------------------------------------------------------
	 ==================> DF-MP2 Energies <==================== 
	-----------------------------------------------------------
	 Reference Energy          =    -304.7368566239883876 [Eh]
	 Singles Energy            =      -0.0000000000000000 [Eh]
	 Same-Spin Energy          =      -0.2851026807956438 [Eh]
	 Opposite-Spin Energy      =      -0.8617865338536077 [Eh]
	 Correlation Energy        =      -1.1468892146492515 [Eh]
	 Total Energy              =    -305.8837458386376511 [Eh]
	-----------------------------------------------------------
	 ================> DF-SCS-MP2 Energies <================== 
	-----------------------------------------------------------
	 SCS Same-Spin Scale       =       0.3333333333333333 [-]
	 SCS Opposite-Spin Scale   =       1.2000000000000000 [-]
	 SCS Same-Spin Energy      =      -0.0950342269318813 [Eh]
	 SCS Opposite-Spin Energy  =      -1.0341438406243293 [Eh]
	 SCS Correlation Energy    =      -1.1291780675562106 [Eh]
	 SCS Total Energy          =    -305.8660346915445984 [Eh]
	-----------------------------------------------------------


*** tstop() called on n032 at Fri Jun  5 11:44:25 2020
Module time:
	user time   =      10.72 seconds =       0.18 minutes
	system time =       0.18 seconds =       0.00 minutes
	total time  =          2 seconds =       0.03 minutes
Total time:
	user time   =     352.16 seconds =       5.87 minutes
	system time =      10.25 seconds =       0.17 minutes
	total time  =         94 seconds =       1.57 minutes

========================OPTAVC-XTPL==========================

MP2/TZ correlation energy -1.1468892146492515

=============================================================

    Psi4 stopped on: Friday, 05 June 2020 11:44AM
    Psi4 wall time for execution: 0:01:34.51

*** Psi4 exiting successfully. Buy a developer a beer!
