
 Primary working directories    : /tmp/320938.488.gen6.q
 Secondary working directories  : /tmp/320938.488.gen6.q
 Wavefunction directory         : /home/vulcan/mel64643/wfu/
 Main file repository           : /tmp/320938.488.gen6.q/

 ARCHNAME  : Linux/x86_64
 FC        : /opt/intel/compilers_and_libraries_2016.1.150/linux/bin/intel64/ifort
 FCVERSION : 16.0.1
 BLASLIB   : -mkl
 id        : ccgc

 Nodes     nprocs
 n090         3
 Number of processes for MPI-2 version of Molpro:   nprocs(total)=    4   nprocs(compute)=    3   nprocs(helper)=    1
 ga_uses_ma=false, calling ma_init with nominal heap.
 GA-space will be limited to   8.0 MW (determined by -G option)

 Using customized tuning parameters: mindgm=10; mindgv=16; mindgc=4; mindgr=1; noblas=0; mincuda=1000; minvec=7
 default implementation of scratch files=sf  

 ***,Frequencies for min3
 memory,1000,m
 gthresh,energy=1.0d-10,orbital=1.0d-10,oneint=1.0d-16,twoint=1.0d-16,optgrad=1.0d-6,compress=1.0d-13
 geomtyp=xyz
 
  geometry = {
  12
  arbitrary comment
     C    1.776278548007    0.711327343990   -0.047325832693
     C    0.491946274645   -0.060012827333   -0.197127877558
     C    0.450404958529   -1.536311936349    0.101612338702
     O   -0.560630169483    0.727246301701    0.254648028005
     O   -1.837678799765    0.092349545593   -0.120536411675
     H    2.585601631638    0.211408222566   -0.610875075080
     H    1.660688865003    1.742854539958   -0.425997764948
     H    2.095165559148    0.773916607656    1.018185575703
     H   -0.504775027349   -1.982740065807   -0.220036150021
     H    1.282012890653   -2.047224511398   -0.416886307347
     H    0.561710314207   -1.719253071327    1.194942724717
     H   -1.987759541193    0.550970077917   -0.966993936543
  }
 
 basis=cc-pvdz
 {rhf;maxit,200}
 {uccsd(t);maxit,200}

 Variables initialized (661), CPU time= 0.00 sec
 Commands  initialized (458), CPU time= 0.01 sec, 486 directives.
 Default parameters read. Elapsed time= 0.06 sec

 Checking input...
 Passed
1


                                         ***  PROGRAM SYSTEM MOLPRO  ***
                         Copyright, University College Cardiff Consultants Limited, 2008

                                    Version 2010.1 linked May 16 2016 07:17:05


 **********************************************************************************************************************************
 LABEL *   Frequencies for min3                                                          
 Linux-4.4.3/n090(x86_64) 64 bit mpp version                                             DATE: 07-Mar-20          TIME: 03:49:35  
 **********************************************************************************************************************************

 SHA1:             9e8077add272b0f3cad6f7df79ec5211205f459d
 **********************************************************************************************************************************

 THRESHOLDS:

 ZERO    =  1.00D-12  ONEINT  =  1.00D-16  TWOINT  =  1.00D-16  PREFAC  =  1.00D-14  LOCALI  =  1.00D-09  EORDER  =  1.00D-04
 ENERGY  =  1.00D-10  ETEST   =  0.00D+00  EDENS   =  0.00D+00  THRDEDEF=  1.00D-06  GRADIENT=  1.00D-02  STEP    =  1.00D-03
 ORBITAL =  1.00D-10  CIVEC   =  1.00D-05  COEFF   =  1.00D-04  PRINTCI =  5.00D-02  PUNCHCI =  9.90D+01  OPTGRAD =  1.00D-06
 OPTENERG=  1.00D-06  OPTSTEP =  3.00D-04  THRGRAD =  1.00D-10  COMPRESS=  1.00D-13  VARMIN  =  1.00D-07  VARMAX  =  1.00D-03
 THRDOUB =  0.00D+00  THRDIV  =  1.00D-05  THRRED  =  1.00D-07  THRPSP  =  1.00D+00  THRDC   =  1.00D-10  THRCS   =  1.00D-10
 THRNRM  =  1.00D-08  THREQ   =  0.00D+00  THRDE   =  1.00D+00  THRREF  =  1.00D-05  SPARFAC =  1.00D+00  THRDLP  =  1.00D-07
 THRDIA  =  1.00D-10  THRDLS  =  1.00D-07  THRGPS  =  0.00D+00  THRKEX  =  0.00D+00  THRDIS  =  2.00D-01  THRVAR  =  1.00D-10
 THRLOC  =  1.00D-06  THRGAP  =  1.00D-06  THRLOCT = -1.00D+00  THRGAPT = -1.00D+00  THRORB  =  1.00D-06  THRMLTP =  0.00D+00
 THRCPQCI=  1.00D-10  KEXTA   =  0.00D+00  THRCOARS=  0.00D+00  SYMTOL  =  1.00D-06  GRADTOL =  1.00D-06  THROVL  =  1.00D-08
 THRORTH =  1.00D-08  GRID    =  1.00D-06  GRIDMAX =  1.00D-03  DTMAX   =  0.00D+00

 SETTING GEOMTYP        =    XYZ

 Variable memory set to 1000000000 words,  buffer space   230000 words

 SETTING BASIS          =    CC-PVDZ


 Recomputing integrals since basis changed


 Using spherical harmonics

 Library entry C      S cc-pVDZ              selected for orbital group  1
 Library entry C      P cc-pVDZ              selected for orbital group  1
 Library entry C      D cc-pVDZ              selected for orbital group  1
 Library entry O      S cc-pVDZ              selected for orbital group  2
 Library entry O      P cc-pVDZ              selected for orbital group  2
 Library entry O      D cc-pVDZ              selected for orbital group  2
 Library entry H      S cc-pVDZ              selected for orbital group  3
 Library entry H      P cc-pVDZ              selected for orbital group  3

1PROGRAM * SEWARD (Integral evaluation for generally contracted gaussian basis sets)     Author: Roland Lindh, 1990

 Geometry written to block  1 of record 700


 Point group  C1  



 ATOMIC COORDINATES

 NR  ATOM    CHARGE       X              Y              Z

   1  C       6.00    3.356679989    1.344213870   -0.089432863
   2  C       6.00    0.929643730   -0.113407808   -0.372517701
   3  C       6.00    0.851142020   -2.903208812    0.192019492
   4  O       8.00   -1.059437481    1.374296340    0.481215033
   5  O       8.00   -3.472709649    0.174515350   -0.227780807
   6  H       1.00    4.886078969    0.399503643   -1.154386592
   7  H       1.00    3.138247144    3.293517767   -0.805019108
   8  H       1.00    3.959289107    1.462490437    1.924091889
   9  H       1.00   -0.953886560   -3.746835714   -0.415808063
  10  H       1.00    2.422653260   -3.868693656   -0.787800949
  11  H       1.00    1.061478659   -3.248917455    2.258114492
  12  H       1.00   -3.756321148    1.041182554   -1.827353711

 Bond lengths in Bohr (Angstrom)

 1-2  2.845224592  1-6  2.089417407  1-7  2.087956481  1-8  2.105091214  2-3  2.847429438
     ( 1.505628009)     ( 1.105672072)     ( 1.104898983)     ( 1.113966294)     ( 1.506794763)

  2- 4  2.626512380   3- 9  2.083095979   3-10  2.088505844   3-11  2.105351401   4- 5  2.786760141
       ( 1.389890491)       ( 1.102326916)       ( 1.105189693)       ( 1.114103978)       ( 1.474689953)

  5-12  1.841244416
       ( 0.974344581)

 Bond angles

  1-2-3  120.37964988   1-2-4  108.87360786   2-1-6  110.00145575   2-1-7  110.79015598

  2- 1- 8  111.60091270   2- 3- 9  111.27402466   2- 3-10  109.82629627   2- 3-11  110.65207952

  2- 4- 5  109.22367443   3- 2- 4  118.01041580   4- 5-12   98.72910104   6- 1- 7  108.90563390

  6- 1- 8  107.66109780   7- 1- 8  107.77657381   9- 3-10  109.14141708   9- 3-11  107.84352470

 10- 3-11  108.01808067

 NUCLEAR CHARGE:                   41
 NUMBER OF PRIMITIVE AOS:         184
 NUMBER OF SYMMETRY AOS:          179
 NUMBER OF CONTRACTIONS:          105   ( 105A   )
 NUMBER OF CORE ORBITALS:           5   (   5A   )
 NUMBER OF VALENCE ORBITALS:       27   (  27A   )


 NUCLEAR REPULSION ENERGY  183.22809312


 Eigenvalues of metric

         1 0.345E-02 0.435E-02 0.105E-01 0.141E-01 0.182E-01 0.214E-01 0.331E-01 0.346E-01


 Contracted 2-electron integrals neglected if value below      1.0D-16
 AO integral compression algorithm  1   Integral accuracy      1.0D-16

     127.402 MB (compressed) written to integral file ( 93.4%)

     Node minimum: 40.894 MB, node maximum: 43.516 MB


 NUMBER OF SORTED TWO-ELECTRON INTEGRALS:    5164320.     BUFFER LENGTH:  32768
 NUMBER OF SEGMENTS:   1  SEGMENT LENGTH:    5164320      RECORD LENGTH: 524288

 Memory used in sort:       5.72 MW

 SORT1 READ    17075251. AND WROTE     5135913. INTEGRALS IN     15 RECORDS. CPU TIME:     0.20 SEC, REAL TIME:     0.24 SEC
 SORT2 READ    15396653. AND WROTE    15487395. INTEGRALS IN    498 RECORDS. CPU TIME:     0.05 SEC, REAL TIME:     0.09 SEC

 Node minimum:     5160610.  Node maximum:     5164320. integrals

 OPERATOR DM      FOR CENTER  0  COORDINATES:    0.000000    0.000000    0.000000


 **********************************************************************************************************************************
 DATASETS  * FILE   NREC   LENGTH (MB)   RECORD NAMES
              1      18        3.17       500      610      700      900      950      970     1000      129      960     1100   
                                          VAR    BASINP    GEOM    SYMINP    ZMAT    AOBASIS   BASIS     P2S    ABASIS      S 
                                         1400     1410     1200     1210     1080     1600     1650     1700   
                                           T        V       H0       H01     AOSYM     SMH    MOLCAS    OPER   

 PROGRAMS   *        TOTAL       INT
 CPU TIMES  *         0.85      0.78
 REAL TIME  *         1.24 SEC
 DISK USED  *       305.44 MB      
 GA USED    *         0.00 MB       (max)       0.00 MB       (current)
 **********************************************************************************************************************************

1PROGRAM * RHF-SCF (OPEN SHELL)       Authors: W. Meyer, H.-J. Werner


 NUMBER OF ELECTRONS:      21+   20-    SPACE SYMMETRY=1    SPIN SYMMETRY: Doublet 
 CONVERGENCE THRESHOLDS:    1.00E-10 (Density)    1.00E-11 (Energy)
 MAX. NUMBER OF ITERATIONS:      200
 INTERPOLATION TYPE:            DIIS
 INTERPOLATION STEPS:              2 (START)      1 (STEP)
 LEVEL SHIFTS:                 -0.30 (CLOSED)  0.00 (OPEN) 



 Orbital guess generated from atomic densities. Full valence occupancy:   32

 Molecular orbital dump at record        2100.2

 ITERATION    DDIFF          GRAD             ENERGY        2-EL.EN.            DIPOLE MOMENTS         DIIS
    1      0.000D+00      0.000D+00      -267.17824561    555.830838    0.57129    0.04966   -0.74910    0
    2      0.000D+00      0.617D-02      -267.24892875    555.751172    0.41489   -0.13108   -0.59872    1
    3      0.927D-02      0.214D-02      -267.26110045    555.669272    0.39443   -0.05926   -0.62612    2
    4      0.336D-02      0.912D-03      -267.26470349    555.821450    0.37977   -0.09943   -0.64256    3
    5      0.186D-02      0.363D-03      -267.26527066    555.792749    0.38227   -0.09294   -0.63552    4
    6      0.792D-03      0.110D-03      -267.26534655    555.779009    0.38053   -0.09274   -0.63825    5
    7      0.276D-03      0.509D-04      -267.26536650    555.776006    0.37982   -0.09248   -0.63774    6
    8      0.143D-03      0.272D-04      -267.26537251    555.774062    0.38010   -0.09259   -0.63794    7
    9      0.919D-04      0.115D-04      -267.26537343    555.774375    0.38028   -0.09255   -0.63770    8
   10      0.365D-04      0.500D-05      -267.26537358    555.774985    0.38054   -0.09256   -0.63777    9
   11      0.146D-04      0.196D-05      -267.26537361    555.774828    0.38059   -0.09256   -0.63777    9
   12      0.649D-05      0.669D-06      -267.26537361    555.774962    0.38061   -0.09256   -0.63777    9
   13      0.227D-05      0.226D-06      -267.26537361    555.774877    0.38061   -0.09256   -0.63776    9
   14      0.630D-06      0.755D-07      -267.26537361    555.774886    0.38062   -0.09256   -0.63776    9
   15      0.192D-06      0.299D-07      -267.26537361    555.774882    0.38062   -0.09256   -0.63776    9
   16      0.820D-07      0.144D-07      -267.26537361    555.774884    0.38062   -0.09256   -0.63776    9
   17      0.371D-07      0.745D-08      -267.26537361    555.774884    0.38062   -0.09256   -0.63776    9
   18      0.220D-07      0.340D-08      -267.26537361    555.774884    0.38062   -0.09256   -0.63776    9
   19      0.114D-07      0.132D-08      -267.26537361    555.774884    0.38062   -0.09256   -0.63776    9
   20      0.442D-08      0.563D-09      -267.26537361    555.774884    0.38062   -0.09256   -0.63776    9
   21      0.164D-08      0.284D-09      -267.26537361    555.774884    0.38062   -0.09256   -0.63776    9
   22      0.747D-09      0.161D-09      -267.26537361    555.774884    0.38062   -0.09256   -0.63776    9
   23      0.443D-09      0.791D-10      -267.26537361    555.774884    0.38062   -0.09256   -0.63776    9
   24      0.262D-09      0.314D-10      -267.26537361    555.774884    0.38062   -0.09256   -0.63776    9
   25      0.926D-10      0.128D-10      -267.26537361    555.774884    0.38062   -0.09256   -0.63776    0

 Final alpha occupancy:  21
 Final beta  occupancy:  20

 !RHF STATE 1.1 Energy               -267.265373612322
 Nuclear energy                       183.22809312
 One-electron energy                 -728.38090862
 Two-electron energy                  277.88744189
 Virial quotient                       -1.00155732
 !RHF STATE 1.1 Dipole moment           0.38061800    -0.09256220    -0.63776438
 Dipole moment /Debye                   0.96737110    -0.23525424    -1.62092919

 Orbital energies:

         1.1          2.1          3.1          4.1          5.1          6.1          7.1          8.1          9.1         10.1
    -20.630459   -20.628774   -11.279347   -11.237919   -11.232212    -1.470115    -1.240670    -1.023277    -0.945347    -0.768445

        11.1         12.1         13.1         14.1         15.1         16.1         17.1         18.1         19.1         20.1
     -0.704565    -0.643080    -0.626714    -0.588762    -0.545131    -0.543359    -0.538790    -0.516976    -0.492974    -0.469824

        21.1         22.1         23.1
     -0.352548     0.181304     0.183543


 **********************************************************************************************************************************
 DATASETS  * FILE   NREC   LENGTH (MB)   RECORD NAMES
              1      18        3.17       500      610      700      900      950      970     1000      129      960     1100   
                                          VAR    BASINP    GEOM    SYMINP    ZMAT    AOBASIS   BASIS     P2S    ABASIS      S 
                                         1400     1410     1200     1210     1080     1600     1650     1700   
                                           T        V       H0       H01     AOSYM     SMH    MOLCAS    OPER   

              2       3        0.77       700     1000     2100   
                                         GEOM     BASIS     RHF  

 PROGRAMS   *        TOTAL       RHF       INT
 CPU TIMES  *         1.77      0.92      0.78
 REAL TIME  *         2.31 SEC
 DISK USED  *       322.01 MB      
 SF USED    *         0.04 MB      
 GA USED    *         0.00 MB       (max)       0.00 MB       (current)
 **********************************************************************************************************************************


1PROGRAM * CCSD (Unrestricted open-shell coupled cluster)     Authors: C. Hampel, H.-J. Werner, 1991, M. Deegan, P.J. Knowles, 1992


 Convergence thresholds:  THRVAR = 1.00D-08  THRDEN = 1.00D-10

 CCSD(T)     terms to be evaluated (factor= 1.000)


 Number of core orbitals:           5 (   5 )
 Number of closed-shell orbitals:  15 (  15 )
 Number of active  orbitals:        1 (   1 )
 Number of external orbitals:      84 (  84 )

 Memory could be reduced to 24.91 Mwords without degradation in triples

 Number of N-1 electron functions:              31
 Number of N-2 electron functions:             465
 Number of singly external CSFs:              2635
 Number of doubly external CSFs:           2537250
 Total number of CSFs:                     2539885

 Molecular orbitals read from record     2100.2  Type=RHF/CANONICAL (state 1.1)

 Integral transformation finished. Total CPU:   0.72 sec, npass=  1  Memory used:  12.63 MW

 Starting RMP2 calculation

 ITER.      SQ.NORM     CORR.ENERGY   TOTAL ENERGY   ENERGY CHANGE        DEN1      VAR(S)    VAR(P)  DIIS     TIME
   1      1.24304476    -0.78639152  -268.05176513    -0.78639152    -0.00305042  0.20D-04  0.11D-02  1  1     0.97
   2      1.24568694    -0.78968123  -268.05505484    -0.00328971    -0.00000475  0.54D-06  0.19D-05  2  2     1.21
   3      1.24575254    -0.78972332  -268.05509693    -0.00004209    -0.00000003  0.16D-07  0.68D-08  3  3     1.47
   4      1.24575350    -0.78972332  -268.05509694    -0.00000000    -0.00000000  0.27D-09  0.38D-10  4  4     1.75
   5      1.24575358    -0.78972336  -268.05509697    -0.00000003    -0.00000000  0.25D-11  0.66D-12  5  5     2.06
   6      1.24575360    -0.78972336  -268.05509697    -0.00000001    -0.00000000  0.28D-13  0.87D-14  6  6     2.39
   7      1.24575360    -0.78972336  -268.05509697     0.00000000    -0.00000000  0.47D-15  0.12D-15  6  1     2.72
   8      1.24575360    -0.78972336  -268.05509697     0.00000000    -0.00000000  0.60D-17  0.13D-17  6  2     3.04

 Norm of t1 vector:      0.03891486      S-energy:    -0.00226954      T1 diagnostic:  0.00055068
 Norm of t2 vector:      0.49420566      P-energy:    -0.78745383
                                         Alpha-Beta:  -0.59343014
                                         Alpha-Alpha: -0.10094188
                                         Beta-Beta:   -0.09308180

 Spin contamination <S**2-Sz**2-Sz>     0.00103966
  Reference energy                   -267.265373612320
  RHF-RMP2 correlation energy          -0.789723362201
 !RHF-RMP2 energy                    -268.055096974521

 Starting UCCSD calculation

 ITER.      SQ.NORM     CORR.ENERGY   TOTAL ENERGY   ENERGY CHANGE        DEN1      VAR(S)    VAR(P)  DIIS     TIME
   1      1.26281798    -0.80905778  -268.07443139    -0.80905778    -0.02515984  0.38D-02  0.59D-02  1  1     7.77
   2      1.29159887    -0.83647055  -268.10184416    -0.02741277    -0.00201196  0.22D-03  0.66D-03  2  2    12.51
   3      1.30154442    -0.84097027  -268.10634388    -0.00449973    -0.00032478  0.19D-03  0.56D-04  3  3    17.27
   4      1.30645957    -0.84244808  -268.10782169    -0.00147781    -0.00007210  0.43D-04  0.14D-04  4  4    22.06
   5      1.30918971    -0.84283632  -268.10820994    -0.00038825    -0.00002366  0.19D-04  0.32D-05  5  5    26.88
   6      1.31112784    -0.84304078  -268.10841439    -0.00020445    -0.00000644  0.42D-05  0.12D-05  6  6    31.74
   7      1.31207550    -0.84309948  -268.10847309    -0.00005870    -0.00000207  0.14D-05  0.37D-06  6  2    36.63
   8      1.31251546    -0.84314207  -268.10851568    -0.00004259    -0.00000065  0.44D-06  0.11D-06  6  1    41.48
   9      1.31269946    -0.84314661  -268.10852022    -0.00000454    -0.00000022  0.15D-06  0.35D-07  6  4    46.34
  10      1.31276214    -0.84314952  -268.10852314    -0.00000292    -0.00000005  0.34D-07  0.95D-08  6  3    51.19
  11      1.31279142    -0.84314825  -268.10852187     0.00000127    -0.00000002  0.13D-07  0.28D-08  6  5    56.04
  12      1.31280171    -0.84314799  -268.10852160     0.00000026    -0.00000000  0.26D-08  0.95D-09  6  6    60.88
  13      1.31280057    -0.84314708  -268.10852069     0.00000091    -0.00000000  0.96D-09  0.28D-09  6  2    65.73
  14      1.31279538    -0.84314624  -268.10851985     0.00000084    -0.00000000  0.21D-09  0.67D-10  6  1    70.58
  15      1.31279131    -0.84314565  -268.10851926     0.00000058    -0.00000000  0.78D-10  0.19D-10  6  4    75.48
  16      1.31278813    -0.84314527  -268.10851888     0.00000038    -0.00000000  0.28D-10  0.62D-11  6  3    80.33
  17      1.31278594    -0.84314503  -268.10851864     0.00000024    -0.00000000  0.10D-10  0.24D-11  6  5    85.18
  18      1.31278504    -0.84314497  -268.10851858     0.00000006    -0.00000000  0.40D-11  0.86D-12  6  6    90.03
  19      1.31278443    -0.84314494  -268.10851855     0.00000003    -0.00000000  0.16D-11  0.37D-12  6  2    94.88
  20      1.31278411    -0.84314493  -268.10851854     0.00000001    -0.00000000  0.59D-12  0.13D-12  6  1    99.73
  21      1.31278395    -0.84314492  -268.10851853     0.00000001    -0.00000000  0.28D-12  0.57D-13  6  4   104.58
  22      1.31278383    -0.84314491  -268.10851852     0.00000001    -0.00000000  0.73D-13  0.21D-13  6  3   109.46
  23      1.31278377    -0.84314490  -268.10851852     0.00000000    -0.00000000  0.21D-13  0.62D-14  6  5   114.31
  24      1.31278377    -0.84314490  -268.10851852    -0.00000000    -0.00000000  0.67D-14  0.22D-14  6  6   119.16
  25      1.31278377    -0.84314491  -268.10851852    -0.00000000    -0.00000000  0.21D-14  0.52D-15  6  2   124.00
  26      1.31278378    -0.84314491  -268.10851852    -0.00000000    -0.00000000  0.76D-15  0.15D-15  6  1   128.86
  27      1.31278379    -0.84314491  -268.10851852    -0.00000000    -0.00000000  0.20D-15  0.62D-16  6  3   133.71
  28      1.31278379    -0.84314491  -268.10851852    -0.00000000    -0.00000000  0.29D-16  0.11D-16  6  4   138.56
  29      1.31278379    -0.84314491  -268.10851852    -0.00000000    -0.00000000  0.70D-17  0.29D-17  6  5   143.43
  30      1.31278380    -0.84314491  -268.10851852    -0.00000000    -0.00000000  0.15D-17  0.54D-18  6  6   148.30
  31      1.31278380    -0.84314491  -268.10851852    -0.00000000    -0.00000000  0.35D-18  0.10D-18  6  2   153.15

 Norm of t1 vector:      0.13870730      S-energy:    -0.00281862      T1 diagnostic:  0.01616982
                                                                       D1 diagnostic:  0.06285492
 Norm of t2 vector:      0.54179709      P-energy:    -0.84032629
                                         Alpha-Beta:  -0.66488152
                                         Alpha-Alpha: -0.09147305
                                         Beta-Beta:   -0.08397172

 Spin contamination <S**2-Sz**2-Sz>     0.00216707

 Memory could be reduced to 28.85 Mwords without degradation in triples
 

 RESULTS
 =======

  Reference energy                   -267.265373612320
  UCCSD singles energy                 -0.002818620535
  UCCSD pair energy                    -0.840326287606
  UCCSD correlation energy             -0.843144908141
  Triples (T) contribution             -0.024978374494
  Total correlation energy             -0.868123282635
 
  RHF-UCCSD energy                   -268.108518520461
  RHF-UCCSD[T] energy                -268.134833399597
  RHF-UCCSD-T energy                 -268.133075100316
 !RHF-UCCSD(T) energy                -268.133496894955

 Program statistics:

 Available memory in ccsd:               999997692
 Min. memory needed in ccsd:               7337057
 Max. memory used in ccsd:                10523002
 Max. memory used in cckext:              10867977 (31 integral passes)
 Max. memory used in cckint:              12633073 ( 1 integral passes)



 **********************************************************************************************************************************
 DATASETS  * FILE   NREC   LENGTH (MB)   RECORD NAMES
              1      18        3.17       500      610      700      900      950      970     1000      129      960     1100   
                                          VAR    BASINP    GEOM    SYMINP    ZMAT    AOBASIS   BASIS     P2S    ABASIS      S 
                                         1400     1410     1200     1210     1080     1600     1650     1700   
                                           T        V       H0       H01     AOSYM     SMH    MOLCAS    OPER   

              2       3        0.77       700     1000     2100   
                                         GEOM     BASIS     RHF  

 PROGRAMS   *        TOTAL  UCCSD(T)       RHF       INT
 CPU TIMES  *       192.22    190.45      0.92      0.78
 REAL TIME  *       202.65 SEC
 DISK USED  *         1.29 GB      
 SF USED    *       553.73 MB      
 GA USED    *         0.00 MB       (max)       0.00 MB       (current)
 **********************************************************************************************************************************

        UCCSD(T)        RHF-SCF 
   -268.13349689   -267.26537361
 **********************************************************************************************************************************
 Variable memory released
