
 Primary working directories    : /tmp/320938.745.gen6.q
 Secondary working directories  : /tmp/320938.745.gen6.q
 Wavefunction directory         : /home/vulcan/mel64643/wfu/
 Main file repository           : /tmp/320938.745.gen6.q/

 ARCHNAME  : Linux/x86_64
 FC        : /opt/intel/compilers_and_libraries_2016.1.150/linux/bin/intel64/ifort
 FCVERSION : 16.0.1
 BLASLIB   : -mkl
 id        : ccgc

 Nodes     nprocs
 n085         3
 Number of processes for MPI-2 version of Molpro:   nprocs(total)=    4   nprocs(compute)=    3   nprocs(helper)=    1
 ga_uses_ma=false, calling ma_init with nominal heap.
 GA-space will be limited to   8.0 MW (determined by -G option)

 Using customized tuning parameters: mindgm=10; mindgv=16; mindgc=4; mindgr=1; noblas=0; mincuda=1000; minvec=7
 default implementation of scratch files=sf  

 ***,Frequencies for min3
 memory,1000,m
 gthresh,energy=1.0d-10,orbital=1.0d-10,oneint=1.0d-16,twoint=1.0d-16,optgrad=1.0d-6,compress=1.0d-13
 geomtyp=xyz
 
  geometry = {
  12
  arbitrary comment
     C    1.776964391707    0.711398808326   -0.047331391796
     C    0.491811976407   -0.059992870174   -0.196493901896
     C    0.450332819107   -1.536294019674    0.101417522804
     O   -0.560767745493    0.727234937526    0.254453964104
     O   -1.837840335593    0.092269037726   -0.120531795196
     H    2.585373063107    0.211465914126   -0.611440883996
     H    1.660426393907    1.742887987326   -0.426532369096
     H    2.095123485707    0.774048097326    1.018846295162
     H   -0.505234513190   -1.982773635714   -0.219340973815
     H    1.283026485628   -2.049344317668   -0.418310653214
     H    0.562057495113   -1.717463151838    1.194244208837
     H   -1.989088801823    0.551267111123   -0.967282698149
  }
 
 basis=cc-pvdz
 {rhf;maxit,200}
 {uccsd(t);maxit,200}

 Variables initialized (661), CPU time= 0.01 sec
 Commands  initialized (458), CPU time= 0.00 sec, 486 directives.
 Default parameters read. Elapsed time= 0.05 sec

 Checking input...
 Passed
1


                                         ***  PROGRAM SYSTEM MOLPRO  ***
                         Copyright, University College Cardiff Consultants Limited, 2008

                                    Version 2010.1 linked May 16 2016 07:17:05


 **********************************************************************************************************************************
 LABEL *   Frequencies for min3                                                          
 Linux-4.4.3/n085(x86_64) 64 bit mpp version                                             DATE: 07-Mar-20          TIME: 05:21:05  
 **********************************************************************************************************************************

 SHA1:             9e8077add272b0f3cad6f7df79ec5211205f459d
 **********************************************************************************************************************************

 THRESHOLDS:

 ZERO    =  1.00D-12  ONEINT  =  1.00D-16  TWOINT  =  1.00D-16  PREFAC  =  1.00D-14  LOCALI  =  1.00D-09  EORDER  =  1.00D-04
 ENERGY  =  1.00D-10  ETEST   =  0.00D+00  EDENS   =  0.00D+00  THRDEDEF=  1.00D-06  GRADIENT=  1.00D-02  STEP    =  1.00D-03
 ORBITAL =  1.00D-10  CIVEC   =  1.00D-05  COEFF   =  1.00D-04  PRINTCI =  5.00D-02  PUNCHCI =  9.90D+01  OPTGRAD =  1.00D-06
 OPTENERG=  1.00D-06  OPTSTEP =  3.00D-04  THRGRAD =  1.00D-10  COMPRESS=  1.00D-13  VARMIN  =  1.00D-07  VARMAX  =  1.00D-03
 THRDOUB =  0.00D+00  THRDIV  =  1.00D-05  THRRED  =  1.00D-07  THRPSP  =  1.00D+00  THRDC   =  1.00D-10  THRCS   =  1.00D-10
 THRNRM  =  1.00D-08  THREQ   =  0.00D+00  THRDE   =  1.00D+00  THRREF  =  1.00D-05  SPARFAC =  1.00D+00  THRDLP  =  1.00D-07
 THRDIA  =  1.00D-10  THRDLS  =  1.00D-07  THRGPS  =  0.00D+00  THRKEX  =  0.00D+00  THRDIS  =  2.00D-01  THRVAR  =  1.00D-10
 THRLOC  =  1.00D-06  THRGAP  =  1.00D-06  THRLOCT = -1.00D+00  THRGAPT = -1.00D+00  THRORB  =  1.00D-06  THRMLTP =  0.00D+00
 THRCPQCI=  1.00D-10  KEXTA   =  0.00D+00  THRCOARS=  0.00D+00  SYMTOL  =  1.00D-06  GRADTOL =  1.00D-06  THROVL  =  1.00D-08
 THRORTH =  1.00D-08  GRID    =  1.00D-06  GRIDMAX =  1.00D-03  DTMAX   =  0.00D+00

 SETTING GEOMTYP        =    XYZ

 Variable memory set to 1000000000 words,  buffer space   230000 words

 SETTING BASIS          =    CC-PVDZ


 Recomputing integrals since basis changed


 Using spherical harmonics

 Library entry C      S cc-pVDZ              selected for orbital group  1
 Library entry C      P cc-pVDZ              selected for orbital group  1
 Library entry C      D cc-pVDZ              selected for orbital group  1
 Library entry O      S cc-pVDZ              selected for orbital group  2
 Library entry O      P cc-pVDZ              selected for orbital group  2
 Library entry O      D cc-pVDZ              selected for orbital group  2
 Library entry H      S cc-pVDZ              selected for orbital group  3
 Library entry H      P cc-pVDZ              selected for orbital group  3

1PROGRAM * SEWARD (Integral evaluation for generally contracted gaussian basis sets)     Author: Roland Lindh, 1990

 Geometry written to block  1 of record 700


 Point group  C1  



 ATOMIC COORDINATES

 NR  ATOM    CHARGE       X              Y              Z

   1  C       6.00    3.357976046    1.344348918   -0.089443368
   2  C       6.00    0.929389944   -0.113370094   -0.371319661
   3  C       6.00    0.851005696   -2.903174955    0.191651343
   4  O       8.00   -1.059697462    1.374274865    0.480848305
   5  O       8.00   -3.473014908    0.174363212   -0.227772083
   6  H       1.00    4.885647037    0.399612664   -1.155455816
   7  H       1.00    3.137751146    3.293580974   -0.806029364
   8  H       1.00    3.959209599    1.462738916    1.925340468
   9  H       1.00   -0.954754862   -3.746899152   -0.414494370
  10  H       1.00    2.424568677   -3.872699509   -0.790492572
  11  H       1.00    1.062134736   -3.245534998    2.256794489
  12  H       1.00   -3.758833087    1.041743865   -1.827899391

 Bond lengths in Bohr (Angstrom)

 1-2  2.846476668  1-6  2.088704811  1-7  2.088420481  1-8  2.105908802  2-3  2.847119878
     ( 1.506290578)     ( 1.105294982)     ( 1.105144521)     ( 1.114398942)     ( 1.506630951)

  2- 4  2.625975338   3- 9  2.083279708   3-10  2.093008597   3-11  2.103949164   4- 5  2.786760112
       ( 1.389606300)       ( 1.102424141)       ( 1.107572448)       ( 1.113361946)       ( 1.474689938)

  5-12  1.842402950
       ( 0.974957651)

 Bond angles

  1-2-3  120.37866573   1-2-4  108.90555081   2-1-6  109.98947225   2-1-7  110.73429490

  2- 1- 8  111.53785296   2- 3- 9  111.29541188   2- 3-10  109.90189880   2- 3-11  110.53445331

  2- 4- 5  109.23946113   3- 2- 4  118.03986083   4- 5-12   98.77055247   6- 1- 7  108.91518355

  6- 1- 8  107.75221771   7- 1- 8  107.81297017   9- 3-10  109.11903536   9- 3-11  107.85864894

 10- 3-11  108.04562123

 NUCLEAR CHARGE:                   41
 NUMBER OF PRIMITIVE AOS:         184
 NUMBER OF SYMMETRY AOS:          179
 NUMBER OF CONTRACTIONS:          105   ( 105A   )
 NUMBER OF CORE ORBITALS:           5   (   5A   )
 NUMBER OF VALENCE ORBITALS:       27   (  27A   )


 NUCLEAR REPULSION ENERGY  183.20771002


 Eigenvalues of metric

         1 0.345E-02 0.435E-02 0.105E-01 0.141E-01 0.182E-01 0.214E-01 0.331E-01 0.346E-01


 Contracted 2-electron integrals neglected if value below      1.0D-16
 AO integral compression algorithm  1   Integral accuracy      1.0D-16

     127.664 MB (compressed) written to integral file ( 93.2%)

     Node minimum: 40.632 MB, node maximum: 44.040 MB


 NUMBER OF SORTED TWO-ELECTRON INTEGRALS:    5164320.     BUFFER LENGTH:  32768
 NUMBER OF SEGMENTS:   1  SEGMENT LENGTH:    5164320      RECORD LENGTH: 524288

 Memory used in sort:       5.72 MW

 SORT1 READ    17075251. AND WROTE     5135862. INTEGRALS IN     15 RECORDS. CPU TIME:     0.19 SEC, REAL TIME:     0.22 SEC
 SORT2 READ    15396535. AND WROTE    15487395. INTEGRALS IN    465 RECORDS. CPU TIME:     0.06 SEC, REAL TIME:     0.09 SEC

 Node minimum:     5160610.  Node maximum:     5164320. integrals

 OPERATOR DM      FOR CENTER  0  COORDINATES:    0.000000    0.000000    0.000000


 **********************************************************************************************************************************
 DATASETS  * FILE   NREC   LENGTH (MB)   RECORD NAMES
              1      18        3.17       500      610      700      900      950      970     1000      129      960     1100   
                                          VAR    BASINP    GEOM    SYMINP    ZMAT    AOBASIS   BASIS     P2S    ABASIS      S 
                                         1400     1410     1200     1210     1080     1600     1650     1700   
                                           T        V       H0       H01     AOSYM     SMH    MOLCAS    OPER   

 PROGRAMS   *        TOTAL       INT
 CPU TIMES  *         0.79      0.75
 REAL TIME  *         1.18 SEC
 DISK USED  *       306.05 MB      
 GA USED    *         0.00 MB       (max)       0.00 MB       (current)
 **********************************************************************************************************************************

1PROGRAM * RHF-SCF (OPEN SHELL)       Authors: W. Meyer, H.-J. Werner


 NUMBER OF ELECTRONS:      21+   20-    SPACE SYMMETRY=1    SPIN SYMMETRY: Doublet 
 CONVERGENCE THRESHOLDS:    1.00E-10 (Density)    1.00E-11 (Energy)
 MAX. NUMBER OF ITERATIONS:      200
 INTERPOLATION TYPE:            DIIS
 INTERPOLATION STEPS:              2 (START)      1 (STEP)
 LEVEL SHIFTS:                 -0.30 (CLOSED)  0.00 (OPEN) 



 Orbital guess generated from atomic densities. Full valence occupancy:   32

 Molecular orbital dump at record        2100.2

 ITERATION    DDIFF          GRAD             ENERGY        2-EL.EN.            DIPOLE MOMENTS         DIIS
    1      0.000D+00      0.000D+00      -267.17819485    555.794555    0.56992    0.04907   -0.74986    0
    2      0.000D+00      0.617D-02      -267.24884458    555.713503    0.41299   -0.13088   -0.59907    1
    3      0.927D-02      0.214D-02      -267.26102109    555.632064    0.39251   -0.05892   -0.62625    2
    4      0.336D-02      0.912D-03      -267.26462857    555.783883    0.37778   -0.09897   -0.64252    3
    5      0.186D-02      0.363D-03      -267.26519778    555.755162    0.38027   -0.09243   -0.63545    4
    6      0.792D-03      0.110D-03      -267.26527424    555.741420    0.37852   -0.09222   -0.63817    5
    7      0.277D-03      0.511D-04      -267.26529438    555.738398    0.37780   -0.09196   -0.63766    6
    8      0.144D-03      0.272D-04      -267.26530044    555.736451    0.37808   -0.09207   -0.63787    7
    9      0.924D-04      0.115D-04      -267.26530136    555.736767    0.37826   -0.09203   -0.63763    8
   10      0.366D-04      0.501D-05      -267.26530151    555.737379    0.37852   -0.09204   -0.63769    9
   11      0.147D-04      0.197D-05      -267.26530154    555.737221    0.37857   -0.09204   -0.63770    9
   12      0.651D-05      0.671D-06      -267.26530154    555.737356    0.37859   -0.09204   -0.63769    9
   13      0.227D-05      0.227D-06      -267.26530154    555.737271    0.37859   -0.09204   -0.63769    9
   14      0.632D-06      0.759D-07      -267.26530154    555.737280    0.37859   -0.09204   -0.63769    9
   15      0.193D-06      0.302D-07      -267.26530154    555.737276    0.37860   -0.09204   -0.63769    9
   16      0.828D-07      0.146D-07      -267.26530154    555.737277    0.37860   -0.09204   -0.63769    9
   17      0.377D-07      0.755D-08      -267.26530154    555.737277    0.37860   -0.09204   -0.63769    9
   18      0.224D-07      0.343D-08      -267.26530154    555.737277    0.37860   -0.09204   -0.63769    9
   19      0.115D-07      0.134D-08      -267.26530154    555.737277    0.37860   -0.09204   -0.63769    9
   20      0.445D-08      0.569D-09      -267.26530154    555.737278    0.37860   -0.09204   -0.63769    9
   21      0.166D-08      0.288D-09      -267.26530154    555.737278    0.37860   -0.09204   -0.63769    9
   22      0.757D-09      0.162D-09      -267.26530154    555.737278    0.37860   -0.09204   -0.63769    9
   23      0.448D-09      0.800D-10      -267.26530154    555.737278    0.37860   -0.09204   -0.63769    9
   24      0.265D-09      0.318D-10      -267.26530154    555.737278    0.37860   -0.09204   -0.63769    9
   25      0.936D-10      0.130D-10      -267.26530154    555.737278    0.37860   -0.09204   -0.63769    0

 Final alpha occupancy:  21
 Final beta  occupancy:  20

 !RHF STATE 1.1 Energy               -267.265301544761
 Nuclear energy                       183.20771002
 One-electron energy                 -728.34165033
 Two-electron energy                  277.86863876
 Virial quotient                       -1.00157413
 !RHF STATE 1.1 Dipole moment           0.37859683    -0.09203837    -0.63769124
 Dipole moment /Debye                   0.96223414    -0.23392288    -1.62074330

 Orbital energies:

         1.1          2.1          3.1          4.1          5.1          6.1          7.1          8.1          9.1         10.1
    -20.630503   -20.628863   -11.279257   -11.237991   -11.232387    -1.470097    -1.240643    -1.023117    -0.945196    -0.768356

        11.1         12.1         13.1         14.1         15.1         16.1         17.1         18.1         19.1         20.1
     -0.704458    -0.642980    -0.626758    -0.588636    -0.545206    -0.543171    -0.538891    -0.516789    -0.492970    -0.469800

        21.1         22.1         23.1
     -0.352239     0.181190     0.183474


 **********************************************************************************************************************************
 DATASETS  * FILE   NREC   LENGTH (MB)   RECORD NAMES
              1      18        3.17       500      610      700      900      950      970     1000      129      960     1100   
                                          VAR    BASINP    GEOM    SYMINP    ZMAT    AOBASIS   BASIS     P2S    ABASIS      S 
                                         1400     1410     1200     1210     1080     1600     1650     1700   
                                           T        V       H0       H01     AOSYM     SMH    MOLCAS    OPER   

              2       3        0.77       700     1000     2100   
                                         GEOM     BASIS     RHF  

 PROGRAMS   *        TOTAL       RHF       INT
 CPU TIMES  *         1.72      0.93      0.75
 REAL TIME  *         2.25 SEC
 DISK USED  *       322.62 MB      
 SF USED    *         0.04 MB      
 GA USED    *         0.00 MB       (max)       0.00 MB       (current)
 **********************************************************************************************************************************


1PROGRAM * CCSD (Unrestricted open-shell coupled cluster)     Authors: C. Hampel, H.-J. Werner, 1991, M. Deegan, P.J. Knowles, 1992


 Convergence thresholds:  THRVAR = 1.00D-08  THRDEN = 1.00D-10

 CCSD(T)     terms to be evaluated (factor= 1.000)


 Number of core orbitals:           5 (   5 )
 Number of closed-shell orbitals:  15 (  15 )
 Number of active  orbitals:        1 (   1 )
 Number of external orbitals:      84 (  84 )

 Memory could be reduced to 24.91 Mwords without degradation in triples

 Number of N-1 electron functions:              31
 Number of N-2 electron functions:             465
 Number of singly external CSFs:              2635
 Number of doubly external CSFs:           2537250
 Total number of CSFs:                     2539885

 Molecular orbitals read from record     2100.2  Type=RHF/CANONICAL (state 1.1)

 Integral transformation finished. Total CPU:   0.71 sec, npass=  1  Memory used:  12.63 MW

 Starting RMP2 calculation

 ITER.      SQ.NORM     CORR.ENERGY   TOTAL ENERGY   ENERGY CHANGE        DEN1      VAR(S)    VAR(P)  DIIS     TIME
   1      1.24309933    -0.78644353  -268.05174508    -0.78644353    -0.00305114  0.20D-04  0.11D-02  1  1     0.97
   2      1.24574247    -0.78973401  -268.05503556    -0.00329048    -0.00000475  0.54D-06  0.19D-05  2  2     1.21
   3      1.24580806    -0.78977610  -268.05507765    -0.00004209    -0.00000003  0.16D-07  0.68D-08  3  3     1.47
   4      1.24580902    -0.78977610  -268.05507765    -0.00000000    -0.00000000  0.27D-09  0.38D-10  4  4     1.76
   5      1.24580910    -0.78977614  -268.05507768    -0.00000003    -0.00000000  0.25D-11  0.65D-12  5  5     2.06
   6      1.24580911    -0.78977614  -268.05507769    -0.00000001    -0.00000000  0.28D-13  0.87D-14  6  6     2.40
   7      1.24580911    -0.78977614  -268.05507769     0.00000000    -0.00000000  0.47D-15  0.12D-15  6  1     2.73
   8      1.24580911    -0.78977614  -268.05507769     0.00000000    -0.00000000  0.60D-17  0.13D-17  6  2     3.06

 Norm of t1 vector:      0.03893566      S-energy:    -0.00227189      T1 diagnostic:  0.00055029
 Norm of t2 vector:      0.49426018      P-energy:    -0.78750425
                                         Alpha-Beta:  -0.59347665
                                         Alpha-Alpha: -0.10094539
                                         Beta-Beta:   -0.09308221

 Spin contamination <S**2-Sz**2-Sz>     0.00104029
  Reference energy                   -267.265301544761
  RHF-RMP2 correlation energy          -0.789776142067
 !RHF-RMP2 energy                    -268.055077686828

 Starting UCCSD calculation

 ITER.      SQ.NORM     CORR.ENERGY   TOTAL ENERGY   ENERGY CHANGE        DEN1      VAR(S)    VAR(P)  DIIS     TIME
   1      1.26288073    -0.80910974  -268.07441129    -0.80910974    -0.02516565  0.38D-02  0.59D-02  1  1     7.78
   2      1.29167493    -0.83653021  -268.10183175    -0.02742046    -0.00201253  0.22D-03  0.66D-03  2  2    12.49
   3      1.30162491    -0.84103229  -268.10633384    -0.00450209    -0.00032476  0.19D-03  0.56D-04  3  3    17.21
   4      1.30654062    -0.84251043  -268.10781197    -0.00147814    -0.00007209  0.43D-04  0.14D-04  4  4    21.98
   5      1.30926999    -0.84289855  -268.10820010    -0.00038813    -0.00002367  0.19D-04  0.32D-05  5  5    26.77
   6      1.31120875    -0.84310299  -268.10840454    -0.00020444    -0.00000646  0.42D-05  0.12D-05  6  6    31.58
   7      1.31215833    -0.84316178  -268.10846333    -0.00005879    -0.00000208  0.14D-05  0.37D-06  6  2    37.62
   8      1.31260031    -0.84320449  -268.10850604    -0.00004271    -0.00000065  0.45D-06  0.11D-06  6  1    43.88
   9      1.31278580    -0.84320909  -268.10851063    -0.00000460    -0.00000022  0.15D-06  0.35D-07  6  4    50.16
  10      1.31284916    -0.84321203  -268.10851358    -0.00000294    -0.00000005  0.35D-07  0.95D-08  6  3    56.49
  11      1.31287868    -0.84321077  -268.10851231     0.00000127    -0.00000002  0.13D-07  0.28D-08  6  5    62.78
  12      1.31288907    -0.84321050  -268.10851205     0.00000026    -0.00000000  0.26D-08  0.95D-09  6  6    69.09
  13      1.31288792    -0.84320958  -268.10851113     0.00000092    -0.00000000  0.96D-09  0.29D-09  6  2    75.36
  14      1.31288271    -0.84320874  -268.10851028     0.00000085    -0.00000000  0.21D-09  0.68D-10  6  1    81.65
  15      1.31287864    -0.84320815  -268.10850970     0.00000059    -0.00000000  0.78D-10  0.19D-10  6  4    87.95
  16      1.31287546    -0.84320777  -268.10850931     0.00000038    -0.00000000  0.28D-10  0.63D-11  6  3    94.27
  17      1.31287325    -0.84320753  -268.10850908     0.00000024    -0.00000000  0.10D-10  0.24D-11  6  5   100.60
  18      1.31287235    -0.84320747  -268.10850902     0.00000006    -0.00000000  0.41D-11  0.87D-12  6  6   106.92
  19      1.31287174    -0.84320744  -268.10850898     0.00000003    -0.00000000  0.16D-11  0.37D-12  6  2   112.96
  20      1.31287142    -0.84320743  -268.10850897     0.00000001    -0.00000000  0.60D-12  0.13D-12  6  1   119.44
  21      1.31287125    -0.84320741  -268.10850896     0.00000001    -0.00000000  0.28D-12  0.58D-13  6  4   125.20
  22      1.31287113    -0.84320741  -268.10850895     0.00000001    -0.00000000  0.74D-13  0.21D-13  6  3   130.97
  23      1.31287107    -0.84320740  -268.10850895     0.00000000    -0.00000000  0.21D-13  0.63D-14  6  5   136.74
  24      1.31287107    -0.84320740  -268.10850895    -0.00000000    -0.00000000  0.68D-14  0.23D-14  6  6   142.52
  25      1.31287107    -0.84320741  -268.10850895    -0.00000000    -0.00000000  0.21D-14  0.53D-15  6  2   148.27
  26      1.31287108    -0.84320741  -268.10850895    -0.00000000    -0.00000000  0.77D-15  0.15D-15  6  1   154.09
  27      1.31287109    -0.84320741  -268.10850895    -0.00000000    -0.00000000  0.20D-15  0.63D-16  6  3   159.86
  28      1.31287109    -0.84320741  -268.10850895    -0.00000000    -0.00000000  0.30D-16  0.11D-16  6  4   165.62
  29      1.31287109    -0.84320741  -268.10850895    -0.00000000    -0.00000000  0.71D-17  0.29D-17  6  5   171.40
  30      1.31287110    -0.84320741  -268.10850895    -0.00000000    -0.00000000  0.15D-17  0.54D-18  6  6   177.16
  31      1.31287110    -0.84320741  -268.10850895    -0.00000000    -0.00000000  0.35D-18  0.10D-18  6  2   182.92

 Norm of t1 vector:      0.13872350      S-energy:    -0.00282157      T1 diagnostic:  0.01616976
                                                                       D1 diagnostic:  0.06279839
 Norm of t2 vector:      0.54187350      P-energy:    -0.84038584
                                         Alpha-Beta:  -0.66494528
                                         Alpha-Alpha: -0.09147287
                                         Beta-Beta:   -0.08396769

 Spin contamination <S**2-Sz**2-Sz>     0.00217151

 Memory could be reduced to 28.85 Mwords without degradation in triples
 

 RESULTS
 =======

  Reference energy                   -267.265301544761
  UCCSD singles energy                 -0.002821566955
  UCCSD pair energy                    -0.840385840479
  UCCSD correlation energy             -0.843207407434
  Triples (T) contribution             -0.024983686367
  Total correlation energy             -0.868191093801
 
  RHF-UCCSD energy                   -268.108508952195
  RHF-UCCSD[T] energy                -268.134828900558
  RHF-UCCSD-T energy                 -268.133070917911
 !RHF-UCCSD(T) energy                -268.133492638562

 Program statistics:

 Available memory in ccsd:               999997692
 Min. memory needed in ccsd:               7337057
 Max. memory used in ccsd:                10523002
 Max. memory used in cckext:              10867977 (31 integral passes)
 Max. memory used in cckint:              12633073 ( 1 integral passes)



 **********************************************************************************************************************************
 DATASETS  * FILE   NREC   LENGTH (MB)   RECORD NAMES
              1      18        3.17       500      610      700      900      950      970     1000      129      960     1100   
                                          VAR    BASINP    GEOM    SYMINP    ZMAT    AOBASIS   BASIS     P2S    ABASIS      S 
                                         1400     1410     1200     1210     1080     1600     1650     1700   
                                           T        V       H0       H01     AOSYM     SMH    MOLCAS    OPER   

              2       3        0.77       700     1000     2100   
                                         GEOM     BASIS     RHF  

 PROGRAMS   *        TOTAL  UCCSD(T)       RHF       INT
 CPU TIMES  *       225.00    223.27      0.93      0.75
 REAL TIME  *       234.73 SEC
 DISK USED  *         1.29 GB      
 SF USED    *       553.73 MB      
 GA USED    *         0.00 MB       (max)       0.00 MB       (current)
 **********************************************************************************************************************************

        UCCSD(T)        RHF-SCF 
   -268.13349264   -267.26530154
 **********************************************************************************************************************************
 Variable memory released
