
 Primary working directories    : /tmp/320938.26.gen4.q
 Secondary working directories  : /tmp/320938.26.gen4.q
 Wavefunction directory         : /home/vulcan/mel64643/wfu/
 Main file repository           : /tmp/320938.26.gen4.q/

 ARCHNAME  : Linux/x86_64
 FC        : /opt/intel/compilers_and_libraries_2016.1.150/linux/bin/intel64/ifort
 FCVERSION : 16.0.1
 BLASLIB   : -mkl
 id        : ccgc

 Nodes     nprocs
 n025         3
 Number of processes for MPI-2 version of Molpro:   nprocs(total)=    4   nprocs(compute)=    3   nprocs(helper)=    1
 ga_uses_ma=false, calling ma_init with nominal heap.
 GA-space will be limited to   8.0 MW (determined by -G option)

 Using customized tuning parameters: mindgm=10; mindgv=16; mindgc=4; mindgr=1; noblas=0; mincuda=1000; minvec=7
 default implementation of scratch files=sf  

 ***,Frequencies for min3
 memory,1000,m
 gthresh,energy=1.0d-10,orbital=1.0d-10,oneint=1.0d-16,twoint=1.0d-16,optgrad=1.0d-6,compress=1.0d-13
 geomtyp=xyz
 
  geometry = {
  12
  arbitrary comment
     C    1.776964391707    0.711398808326   -0.047331391796
     C    0.491811976407   -0.059992870174   -0.196493901896
     C    0.450332819107   -1.536294019674    0.101844115986
     O   -0.560753468077    0.727165671205    0.254453901809
     O   -1.837855844721    0.092552262312   -0.120610839391
     H    2.585099543246    0.211875467435   -0.611959596034
     H    1.659587602261    1.742870914157   -0.426345332398
     H    2.094814079903    0.773627680443    1.017407510880
     H   -0.504262763385   -1.983702693825   -0.221128056959
     H    1.282505411629   -2.047370259363   -0.418424272045
     H    0.562447854677   -1.720245709045    1.193686570460
     H   -1.988488571721    0.549636931934   -0.966877792683
  }
 
 basis=cc-pvdz
 {rhf;maxit,200}
 {uccsd(t);maxit,200}

 Variables initialized (661), CPU time= 0.00 sec
 Commands  initialized (458), CPU time= 0.01 sec, 486 directives.
 Default parameters read. Elapsed time= 0.05 sec

 Checking input...
 Passed
1


                                         ***  PROGRAM SYSTEM MOLPRO  ***
                         Copyright, University College Cardiff Consultants Limited, 2008

                                    Version 2010.1 linked May 16 2016 07:17:05


 **********************************************************************************************************************************
 LABEL *   Frequencies for min3                                                          
 Linux-4.4.3/n025(x86_64) 64 bit mpp version                                             DATE: 07-Mar-20          TIME: 01:05:35  
 **********************************************************************************************************************************

 SHA1:             9e8077add272b0f3cad6f7df79ec5211205f459d
 **********************************************************************************************************************************

 THRESHOLDS:

 ZERO    =  1.00D-12  ONEINT  =  1.00D-16  TWOINT  =  1.00D-16  PREFAC  =  1.00D-14  LOCALI  =  1.00D-09  EORDER  =  1.00D-04
 ENERGY  =  1.00D-10  ETEST   =  0.00D+00  EDENS   =  0.00D+00  THRDEDEF=  1.00D-06  GRADIENT=  1.00D-02  STEP    =  1.00D-03
 ORBITAL =  1.00D-10  CIVEC   =  1.00D-05  COEFF   =  1.00D-04  PRINTCI =  5.00D-02  PUNCHCI =  9.90D+01  OPTGRAD =  1.00D-06
 OPTENERG=  1.00D-06  OPTSTEP =  3.00D-04  THRGRAD =  1.00D-10  COMPRESS=  1.00D-13  VARMIN  =  1.00D-07  VARMAX  =  1.00D-03
 THRDOUB =  0.00D+00  THRDIV  =  1.00D-05  THRRED  =  1.00D-07  THRPSP  =  1.00D+00  THRDC   =  1.00D-10  THRCS   =  1.00D-10
 THRNRM  =  1.00D-08  THREQ   =  0.00D+00  THRDE   =  1.00D+00  THRREF  =  1.00D-05  SPARFAC =  1.00D+00  THRDLP  =  1.00D-07
 THRDIA  =  1.00D-10  THRDLS  =  1.00D-07  THRGPS  =  0.00D+00  THRKEX  =  0.00D+00  THRDIS  =  2.00D-01  THRVAR  =  1.00D-10
 THRLOC  =  1.00D-06  THRGAP  =  1.00D-06  THRLOCT = -1.00D+00  THRGAPT = -1.00D+00  THRORB  =  1.00D-06  THRMLTP =  0.00D+00
 THRCPQCI=  1.00D-10  KEXTA   =  0.00D+00  THRCOARS=  0.00D+00  SYMTOL  =  1.00D-06  GRADTOL =  1.00D-06  THROVL  =  1.00D-08
 THRORTH =  1.00D-08  GRID    =  1.00D-06  GRIDMAX =  1.00D-03  DTMAX   =  0.00D+00

 SETTING GEOMTYP        =    XYZ

 Variable memory set to 1000000000 words,  buffer space   230000 words

 SETTING BASIS          =    CC-PVDZ


 Recomputing integrals since basis changed


 Using spherical harmonics

 Library entry C      S cc-pVDZ              selected for orbital group  1
 Library entry C      P cc-pVDZ              selected for orbital group  1
 Library entry C      D cc-pVDZ              selected for orbital group  1
 Library entry O      S cc-pVDZ              selected for orbital group  2
 Library entry O      P cc-pVDZ              selected for orbital group  2
 Library entry O      D cc-pVDZ              selected for orbital group  2
 Library entry H      S cc-pVDZ              selected for orbital group  3
 Library entry H      P cc-pVDZ              selected for orbital group  3

1PROGRAM * SEWARD (Integral evaluation for generally contracted gaussian basis sets)     Author: Roland Lindh, 1990

 Geometry written to block  1 of record 700


 Point group  C1  



 ATOMIC COORDINATES

 NR  ATOM    CHARGE       X              Y              Z

   1  C       6.00    3.357976046    1.344348918   -0.089443368
   2  C       6.00    0.929389944   -0.113370094   -0.371319661
   3  C       6.00    0.851005696   -2.903174955    0.192457487
   4  O       8.00   -1.059670482    1.374143971    0.480848187
   5  O       8.00   -3.473044216    0.174898429   -0.227921455
   6  H       1.00    4.885130159    0.400386607   -1.156436040
   7  H       1.00    3.136166059    3.293548710   -0.805675916
   8  H       1.00    3.958624907    1.461944444    1.922621560
   9  H       1.00   -0.952918521   -3.748654817   -0.417871468
  10  H       1.00    2.423583990   -3.868969080   -0.790707281
  11  H       1.00    1.062872409   -3.250793269    2.255740705
  12  H       1.00   -3.757698816    1.038663273   -1.827134231

 Bond lengths in Bohr (Angstrom)

 1-2  2.846476668  1-6  2.088477410  1-7  2.088436871  1-8  2.103096059  2-3  2.847279389
     ( 1.506290578)     ( 1.105174647)     ( 1.105153194)     ( 1.112910503)     ( 1.506715360)

  2- 4  2.625880712   3- 9  2.083621898   3-10  2.091022177   3-11  2.103060539   4- 5  2.786560076
       ( 1.389556226)       ( 1.102605221)       ( 1.106521280)       ( 1.112891707)       ( 1.474584083)

  5-12  1.839728091
       ( 0.973542177)

 Bond angles

  1-2-3  120.37492214   1-2-4  108.90727334   2-1-6  109.98760450   2-1-7  110.69500015

  2- 1- 8  111.53368364   2- 3- 9  111.31026044   2- 3-10  109.80075429   2- 3-11  110.69800015

  2- 4- 5  109.25047225   3- 2- 4  118.03013507   4- 5-12   98.80340879   6- 1- 7  108.92331207

  6- 1- 8  107.77102577   7- 1- 8  107.83356056   9- 3-10  109.02407563   9- 3-11  107.91013010

 10- 3-11  108.00994792

 NUCLEAR CHARGE:                   41
 NUMBER OF PRIMITIVE AOS:         184
 NUMBER OF SYMMETRY AOS:          179
 NUMBER OF CONTRACTIONS:          105   ( 105A   )
 NUMBER OF CORE ORBITALS:           5   (   5A   )
 NUMBER OF VALENCE ORBITALS:       27   (  27A   )


 NUCLEAR REPULSION ENERGY  183.22598641


 Eigenvalues of metric

         1 0.345E-02 0.435E-02 0.105E-01 0.141E-01 0.182E-01 0.214E-01 0.331E-01 0.346E-01


 Contracted 2-electron integrals neglected if value below      1.0D-16
 AO integral compression algorithm  1   Integral accuracy      1.0D-16

     127.402 MB (compressed) written to integral file ( 93.4%)

     Node minimum: 41.681 MB, node maximum: 43.778 MB


 NUMBER OF SORTED TWO-ELECTRON INTEGRALS:    5164320.     BUFFER LENGTH:  32768
 NUMBER OF SEGMENTS:   1  SEGMENT LENGTH:    5164320      RECORD LENGTH: 524288

 Memory used in sort:       5.72 MW

 SORT1 READ    17075251. AND WROTE     5135918. INTEGRALS IN     15 RECORDS. CPU TIME:     0.23 SEC, REAL TIME:     0.27 SEC
 SORT2 READ    15396666. AND WROTE    15487395. INTEGRALS IN    480 RECORDS. CPU TIME:     0.08 SEC, REAL TIME:     0.11 SEC

 Node minimum:     5160610.  Node maximum:     5164320. integrals

 OPERATOR DM      FOR CENTER  0  COORDINATES:    0.000000    0.000000    0.000000


 **********************************************************************************************************************************
 DATASETS  * FILE   NREC   LENGTH (MB)   RECORD NAMES
              1      18        3.17       500      610      700      900      950      970     1000      129      960     1100   
                                          VAR    BASINP    GEOM    SYMINP    ZMAT    AOBASIS   BASIS     P2S    ABASIS      S 
                                         1400     1410     1200     1210     1080     1600     1650     1700   
                                           T        V       H0       H01     AOSYM     SMH    MOLCAS    OPER   

 PROGRAMS   *        TOTAL       INT
 CPU TIMES  *         1.28      1.22
 REAL TIME  *         1.57 SEC
 DISK USED  *       305.17 MB      
 GA USED    *         0.00 MB       (max)       0.00 MB       (current)
 **********************************************************************************************************************************

1PROGRAM * RHF-SCF (OPEN SHELL)       Authors: W. Meyer, H.-J. Werner


 NUMBER OF ELECTRONS:      21+   20-    SPACE SYMMETRY=1    SPIN SYMMETRY: Doublet 
 CONVERGENCE THRESHOLDS:    1.00E-10 (Density)    1.00E-11 (Energy)
 MAX. NUMBER OF ITERATIONS:      200
 INTERPOLATION TYPE:            DIIS
 INTERPOLATION STEPS:              2 (START)      1 (STEP)
 LEVEL SHIFTS:                 -0.30 (CLOSED)  0.00 (OPEN) 



 Orbital guess generated from atomic densities. Full valence occupancy:   32

 Molecular orbital dump at record        2100.2

 ITERATION    DDIFF          GRAD             ENERGY        2-EL.EN.            DIPOLE MOMENTS         DIIS
    1      0.000D+00      0.000D+00      -267.17829406    555.823954    0.57167    0.04799   -0.75073    0
    2      0.000D+00      0.617D-02      -267.24898576    555.744845    0.41469   -0.13191   -0.59874    1
    3      0.928D-02      0.214D-02      -267.26116543    555.663179    0.39425   -0.05995   -0.62592    2
    4      0.336D-02      0.912D-03      -267.26477571    555.815381    0.37948   -0.09997   -0.64217    3
    5      0.186D-02      0.363D-03      -267.26534485    555.786688    0.38193   -0.09344   -0.63505    4
    6      0.792D-03      0.110D-03      -267.26542127    555.772988    0.38016   -0.09323   -0.63778    5
    7      0.277D-03      0.511D-04      -267.26544139    555.769961    0.37942   -0.09297   -0.63726    6
    8      0.144D-03      0.272D-04      -267.26544744    555.768029    0.37968   -0.09308   -0.63748    7
    9      0.923D-04      0.115D-04      -267.26544836    555.768332    0.37986   -0.09304   -0.63724    8
   10      0.366D-04      0.501D-05      -267.26544852    555.768947    0.38012   -0.09305   -0.63730    9
   11      0.147D-04      0.196D-05      -267.26544854    555.768788    0.38017   -0.09305   -0.63731    9
   12      0.651D-05      0.670D-06      -267.26544855    555.768923    0.38019   -0.09305   -0.63730    9
   13      0.227D-05      0.226D-06      -267.26544855    555.768838    0.38019   -0.09305   -0.63730    9
   14      0.631D-06      0.756D-07      -267.26544855    555.768847    0.38019   -0.09305   -0.63730    9
   15      0.192D-06      0.299D-07      -267.26544855    555.768843    0.38020   -0.09305   -0.63730    9
   16      0.821D-07      0.144D-07      -267.26544855    555.768845    0.38020   -0.09305   -0.63730    9
   17      0.371D-07      0.745D-08      -267.26544855    555.768844    0.38020   -0.09305   -0.63730    9
   18      0.220D-07      0.340D-08      -267.26544855    555.768845    0.38020   -0.09305   -0.63730    9
   19      0.114D-07      0.133D-08      -267.26544855    555.768845    0.38020   -0.09305   -0.63730    9
   20      0.443D-08      0.565D-09      -267.26544855    555.768845    0.38020   -0.09305   -0.63730    9
   21      0.165D-08      0.285D-09      -267.26544855    555.768845    0.38020   -0.09305   -0.63730    9
   22      0.750D-09      0.161D-09      -267.26544855    555.768845    0.38020   -0.09305   -0.63730    9
   23      0.443D-09      0.792D-10      -267.26544855    555.768845    0.38020   -0.09305   -0.63730    9
   24      0.262D-09      0.316D-10      -267.26544855    555.768845    0.38020   -0.09305   -0.63730    9
   25      0.929D-10      0.129D-10      -267.26544855    555.768845    0.38020   -0.09305   -0.63730    0

 Final alpha occupancy:  21
 Final beta  occupancy:  20

 !RHF STATE 1.1 Energy               -267.265448545933
 Nuclear energy                       183.22598641
 One-electron energy                 -728.37585726
 Two-electron energy                  277.88442230
 Virial quotient                       -1.00154974
 !RHF STATE 1.1 Dipole moment           0.38019668    -0.09304997    -0.63730126
 Dipole moment /Debye                   0.96630027    -0.23649394    -1.61975212

 Orbital energies:

         1.1          2.1          3.1          4.1          5.1          6.1          7.1          8.1          9.1         10.1
    -20.630480   -20.628700   -11.279274   -11.237843   -11.232228    -1.470245    -1.240880    -1.023216    -0.945345    -0.768548

        11.1         12.1         13.1         14.1         15.1         16.1         17.1         18.1         19.1         20.1
     -0.704686    -0.642960    -0.626818    -0.588855    -0.545380    -0.543146    -0.539166    -0.516781    -0.493016    -0.469740

        21.1         22.1         23.1
     -0.352399     0.181309     0.183575


 **********************************************************************************************************************************
 DATASETS  * FILE   NREC   LENGTH (MB)   RECORD NAMES
              1      18        3.17       500      610      700      900      950      970     1000      129      960     1100   
                                          VAR    BASINP    GEOM    SYMINP    ZMAT    AOBASIS   BASIS     P2S    ABASIS      S 
                                         1400     1410     1200     1210     1080     1600     1650     1700   
                                           T        V       H0       H01     AOSYM     SMH    MOLCAS    OPER   

              2       3        0.77       700     1000     2100   
                                         GEOM     BASIS     RHF  

 PROGRAMS   *        TOTAL       RHF       INT
 CPU TIMES  *         2.73      1.45      1.22
 REAL TIME  *         3.19 SEC
 DISK USED  *       321.74 MB      
 SF USED    *         0.04 MB      
 GA USED    *         0.00 MB       (max)       0.00 MB       (current)
 **********************************************************************************************************************************


1PROGRAM * CCSD (Unrestricted open-shell coupled cluster)     Authors: C. Hampel, H.-J. Werner, 1991, M. Deegan, P.J. Knowles, 1992


 Convergence thresholds:  THRVAR = 1.00D-08  THRDEN = 1.00D-10

 CCSD(T)     terms to be evaluated (factor= 1.000)


 Number of core orbitals:           5 (   5 )
 Number of closed-shell orbitals:  15 (  15 )
 Number of active  orbitals:        1 (   1 )
 Number of external orbitals:      84 (  84 )

 Memory could be reduced to 24.91 Mwords without degradation in triples

 Number of N-1 electron functions:              31
 Number of N-2 electron functions:             465
 Number of singly external CSFs:              2635
 Number of doubly external CSFs:           2537250
 Total number of CSFs:                     2539885

 Molecular orbitals read from record     2100.2  Type=RHF/CANONICAL (state 1.1)

 Integral transformation finished. Total CPU:   1.60 sec, npass=  1  Memory used:  12.63 MW

 Starting RMP2 calculation

 ITER.      SQ.NORM     CORR.ENERGY   TOTAL ENERGY   ENERGY CHANGE        DEN1      VAR(S)    VAR(P)  DIIS     TIME
   1      1.24298693    -0.78631448  -268.05176303    -0.78631448    -0.00304908  0.20D-04  0.11D-02  1  1     2.09
   2      1.24562736    -0.78960269  -268.05505123    -0.00328821    -0.00000474  0.54D-06  0.19D-05  2  2     2.51
   3      1.24569285    -0.78964473  -268.05509327    -0.00004204    -0.00000003  0.16D-07  0.67D-08  3  3     2.97
   4      1.24569381    -0.78964473  -268.05509327    -0.00000000    -0.00000000  0.27D-09  0.38D-10  4  4     3.45
   5      1.24569389    -0.78964476  -268.05509330    -0.00000003    -0.00000000  0.25D-11  0.65D-12  5  5     3.96
   6      1.24569390    -0.78964476  -268.05509331    -0.00000001    -0.00000000  0.28D-13  0.86D-14  6  6     4.50
   7      1.24569390    -0.78964476  -268.05509331     0.00000000    -0.00000000  0.47D-15  0.12D-15  6  1     5.05
   8      1.24569390    -0.78964476  -268.05509331     0.00000000    -0.00000000  0.59D-17  0.13D-17  6  2     5.60

 Norm of t1 vector:      0.03891665      S-energy:    -0.00227038      T1 diagnostic:  0.00054995
 Norm of t2 vector:      0.49414512      P-energy:    -0.78737438
                                         Alpha-Beta:  -0.59337057
                                         Alpha-Alpha: -0.10093258
                                         Beta-Beta:   -0.09307123

 Spin contamination <S**2-Sz**2-Sz>     0.00103974
  Reference energy                   -267.265448545930
  RHF-RMP2 correlation energy          -0.789644764508
 !RHF-RMP2 energy                    -268.055093310439

 Starting UCCSD calculation

 ITER.      SQ.NORM     CORR.ENERGY   TOTAL ENERGY   ENERGY CHANGE        DEN1      VAR(S)    VAR(P)  DIIS     TIME
   1      1.26276949    -0.80900196  -268.07445050    -0.80900196    -0.02515049  0.38D-02  0.59D-02  1  1    15.18
   2      1.29153683    -0.83640677  -268.10185532    -0.02740481    -0.00200996  0.22D-03  0.66D-03  2  2    24.97
   3      1.30147327    -0.84090289  -268.10635144    -0.00449612    -0.00032453  0.19D-03  0.56D-04  3  3    34.82
   4      1.30638418    -0.84237930  -268.10782785    -0.00147641    -0.00007210  0.43D-04  0.14D-04  4  4    44.52
   5      1.30911485    -0.84276751  -268.10821605    -0.00038820    -0.00002368  0.19D-04  0.32D-05  5  5    54.19
   6      1.31105514    -0.84297207  -268.10842062    -0.00020456    -0.00000646  0.42D-05  0.12D-05  6  6    64.16
   7      1.31200488    -0.84303088  -268.10847942    -0.00005881    -0.00000208  0.14D-05  0.37D-06  6  2    74.05
   8      1.31244636    -0.84307355  -268.10852209    -0.00004267    -0.00000065  0.45D-06  0.11D-06  6  1    83.92
   9      1.31263137    -0.84307812  -268.10852666    -0.00000457    -0.00000022  0.15D-06  0.35D-07  6  4    93.67
  10      1.31269435    -0.84308103  -268.10852958    -0.00000292    -0.00000005  0.35D-07  0.95D-08  6  3   103.53
  11      1.31272381    -0.84307978  -268.10852832     0.00000125    -0.00000002  0.13D-07  0.28D-08  6  5   113.51
  12      1.31273419    -0.84307952  -268.10852807     0.00000026    -0.00000000  0.26D-08  0.95D-09  6  6   123.49
  13      1.31273305    -0.84307861  -268.10852715     0.00000091    -0.00000000  0.96D-09  0.28D-09  6  2   133.43
  14      1.31272784    -0.84307776  -268.10852631     0.00000084    -0.00000000  0.21D-09  0.67D-10  6  1   143.30
  15      1.31272377    -0.84307718  -268.10852572     0.00000059    -0.00000000  0.78D-10  0.19D-10  6  4   153.21
  16      1.31272058    -0.84307679  -268.10852534     0.00000038    -0.00000000  0.28D-10  0.63D-11  6  3   162.96
  17      1.31271838    -0.84307656  -268.10852510     0.00000024    -0.00000000  0.10D-10  0.24D-11  6  5   172.68
  18      1.31271748    -0.84307650  -268.10852504     0.00000006    -0.00000000  0.41D-11  0.87D-12  6  6   182.49
  19      1.31271687    -0.84307646  -268.10852501     0.00000003    -0.00000000  0.16D-11  0.37D-12  6  2   192.25
  20      1.31271655    -0.84307645  -268.10852500     0.00000001    -0.00000000  0.60D-12  0.13D-12  6  1   202.00
  21      1.31271639    -0.84307644  -268.10852499     0.00000001    -0.00000000  0.28D-12  0.58D-13  6  4   210.84
  22      1.31271627    -0.84307643  -268.10852498     0.00000001    -0.00000000  0.73D-13  0.21D-13  6  3   219.06
  23      1.31271621    -0.84307643  -268.10852497     0.00000000    -0.00000000  0.21D-13  0.62D-14  6  5   227.26
  24      1.31271620    -0.84307643  -268.10852497    -0.00000000    -0.00000000  0.67D-14  0.22D-14  6  6   235.44
  25      1.31271621    -0.84307643  -268.10852498    -0.00000000    -0.00000000  0.21D-14  0.52D-15  6  2   242.27
  26      1.31271621    -0.84307643  -268.10852498    -0.00000000    -0.00000000  0.77D-15  0.15D-15  6  1   249.08
  27      1.31271622    -0.84307643  -268.10852498    -0.00000000    -0.00000000  0.20D-15  0.62D-16  6  3   255.90
  28      1.31271623    -0.84307643  -268.10852498    -0.00000000    -0.00000000  0.30D-16  0.11D-16  6  4   262.72
  29      1.31271623    -0.84307643  -268.10852498    -0.00000000    -0.00000000  0.70D-17  0.29D-17  6  5   269.53
  30      1.31271623    -0.84307643  -268.10852498    -0.00000000    -0.00000000  0.15D-17  0.54D-18  6  6   276.37
  31      1.31271623    -0.84307643  -268.10852498    -0.00000000    -0.00000000  0.35D-18  0.10D-18  6  2   283.22

 Norm of t1 vector:      0.13869747      S-energy:    -0.00281976      T1 diagnostic:  0.01616753
                                                                       D1 diagnostic:  0.06282986
 Norm of t2 vector:      0.54173724      P-energy:    -0.84025667
                                         Alpha-Beta:  -0.66481913
                                         Alpha-Alpha: -0.09147038
                                         Beta-Beta:   -0.08396716

 Spin contamination <S**2-Sz**2-Sz>     0.00217151

 Memory could be reduced to 28.85 Mwords without degradation in triples
 

 RESULTS
 =======

  Reference energy                   -267.265448545930
  UCCSD singles energy                 -0.002819757752
  UCCSD pair energy                    -0.840256674574
  UCCSD correlation energy             -0.843076432326
  Triples (T) contribution             -0.024969735852
  Total correlation energy             -0.868046168178
 
  RHF-UCCSD energy                   -268.108524978256
  RHF-UCCSD[T] energy                -268.134830142835
  RHF-UCCSD-T energy                 -268.133073433827
 !RHF-UCCSD(T) energy                -268.133494714109

 Program statistics:

 Available memory in ccsd:               999997692
 Min. memory needed in ccsd:               7337057
 Max. memory used in ccsd:                10523002
 Max. memory used in cckext:              10867977 (31 integral passes)
 Max. memory used in cckint:              12633073 ( 1 integral passes)



 **********************************************************************************************************************************
 DATASETS  * FILE   NREC   LENGTH (MB)   RECORD NAMES
              1      18        3.17       500      610      700      900      950      970     1000      129      960     1100   
                                          VAR    BASINP    GEOM    SYMINP    ZMAT    AOBASIS   BASIS     P2S    ABASIS      S 
                                         1400     1410     1200     1210     1080     1600     1650     1700   
                                           T        V       H0       H01     AOSYM     SMH    MOLCAS    OPER   

              2       3        0.77       700     1000     2100   
                                         GEOM     BASIS     RHF  

 PROGRAMS   *        TOTAL  UCCSD(T)       RHF       INT
 CPU TIMES  *       347.27    344.54      1.45      1.22
 REAL TIME  *       363.00 SEC
 DISK USED  *         1.29 GB      
 SF USED    *       553.73 MB      
 GA USED    *         0.00 MB       (max)       0.00 MB       (current)
 **********************************************************************************************************************************

        UCCSD(T)        RHF-SCF 
   -268.13349471   -267.26544855
 **********************************************************************************************************************************
 Variable memory released
