
 Primary working directories    : /tmp/320938.208.gen6.q
 Secondary working directories  : /tmp/320938.208.gen6.q
 Wavefunction directory         : /home/vulcan/mel64643/wfu/
 Main file repository           : /tmp/320938.208.gen6.q/

 ARCHNAME  : Linux/x86_64
 FC        : /opt/intel/compilers_and_libraries_2016.1.150/linux/bin/intel64/ifort
 FCVERSION : 16.0.1
 BLASLIB   : -mkl
 id        : ccgc

 Nodes     nprocs
 n080         3
 Number of processes for MPI-2 version of Molpro:   nprocs(total)=    4   nprocs(compute)=    3   nprocs(helper)=    1
 ga_uses_ma=false, calling ma_init with nominal heap.
 GA-space will be limited to   8.0 MW (determined by -G option)

 Using customized tuning parameters: mindgm=10; mindgv=16; mindgc=4; mindgr=1; noblas=0; mincuda=1000; minvec=7
 default implementation of scratch files=sf  

 ***,Frequencies for min3
 memory,1000,m
 gthresh,energy=1.0d-10,orbital=1.0d-10,oneint=1.0d-16,twoint=1.0d-16,optgrad=1.0d-6,compress=1.0d-13
 geomtyp=xyz
 
  geometry = {
  12
  arbitrary comment
     C    1.776278548007    0.711327343990   -0.047325832693
     C    0.491946274645   -0.060012827333   -0.196492114088
     C    0.450406735260   -1.536312020726    0.101420596918
     O   -0.560603393482    0.726767202775    0.254404275406
     O   -1.837707079940    0.092639830246   -0.120522877045
     H    2.585508442657    0.211832634471   -0.611413817762
     H    1.660543825450    1.743264303857   -0.426674558240
     H    2.095241393935    0.774582678506    1.017614244801
     H   -0.504714860873   -1.982401478354   -0.219845159273
     H    1.282052434397   -2.046831542713   -0.416900070349
     H    0.561928163863   -1.718632369935    1.194962273494
     H   -1.987911990228    0.551115197939   -0.967037010113
  }
 
 basis=cc-pvdz
 {rhf;maxit,200}
 {uccsd(t);maxit,200}

 Variables initialized (661), CPU time= 0.01 sec
 Commands  initialized (458), CPU time= 0.00 sec, 486 directives.
 Default parameters read. Elapsed time= 0.05 sec

 Checking input...
 Passed
1


                                         ***  PROGRAM SYSTEM MOLPRO  ***
                         Copyright, University College Cardiff Consultants Limited, 2008

                                    Version 2010.1 linked May 16 2016 07:17:05


 **********************************************************************************************************************************
 LABEL *   Frequencies for min3                                                          
 Linux-4.4.3/n080(x86_64) 64 bit mpp version                                             DATE: 07-Mar-20          TIME: 02:10:19  
 **********************************************************************************************************************************

 SHA1:             9e8077add272b0f3cad6f7df79ec5211205f459d
 **********************************************************************************************************************************

 THRESHOLDS:

 ZERO    =  1.00D-12  ONEINT  =  1.00D-16  TWOINT  =  1.00D-16  PREFAC  =  1.00D-14  LOCALI  =  1.00D-09  EORDER  =  1.00D-04
 ENERGY  =  1.00D-10  ETEST   =  0.00D+00  EDENS   =  0.00D+00  THRDEDEF=  1.00D-06  GRADIENT=  1.00D-02  STEP    =  1.00D-03
 ORBITAL =  1.00D-10  CIVEC   =  1.00D-05  COEFF   =  1.00D-04  PRINTCI =  5.00D-02  PUNCHCI =  9.90D+01  OPTGRAD =  1.00D-06
 OPTENERG=  1.00D-06  OPTSTEP =  3.00D-04  THRGRAD =  1.00D-10  COMPRESS=  1.00D-13  VARMIN  =  1.00D-07  VARMAX  =  1.00D-03
 THRDOUB =  0.00D+00  THRDIV  =  1.00D-05  THRRED  =  1.00D-07  THRPSP  =  1.00D+00  THRDC   =  1.00D-10  THRCS   =  1.00D-10
 THRNRM  =  1.00D-08  THREQ   =  0.00D+00  THRDE   =  1.00D+00  THRREF  =  1.00D-05  SPARFAC =  1.00D+00  THRDLP  =  1.00D-07
 THRDIA  =  1.00D-10  THRDLS  =  1.00D-07  THRGPS  =  0.00D+00  THRKEX  =  0.00D+00  THRDIS  =  2.00D-01  THRVAR  =  1.00D-10
 THRLOC  =  1.00D-06  THRGAP  =  1.00D-06  THRLOCT = -1.00D+00  THRGAPT = -1.00D+00  THRORB  =  1.00D-06  THRMLTP =  0.00D+00
 THRCPQCI=  1.00D-10  KEXTA   =  0.00D+00  THRCOARS=  0.00D+00  SYMTOL  =  1.00D-06  GRADTOL =  1.00D-06  THROVL  =  1.00D-08
 THRORTH =  1.00D-08  GRID    =  1.00D-06  GRIDMAX =  1.00D-03  DTMAX   =  0.00D+00

 SETTING GEOMTYP        =    XYZ

 Variable memory set to 1000000000 words,  buffer space   230000 words

 SETTING BASIS          =    CC-PVDZ


 Recomputing integrals since basis changed


 Using spherical harmonics

 Library entry C      S cc-pVDZ              selected for orbital group  1
 Library entry C      P cc-pVDZ              selected for orbital group  1
 Library entry C      D cc-pVDZ              selected for orbital group  1
 Library entry O      S cc-pVDZ              selected for orbital group  2
 Library entry O      P cc-pVDZ              selected for orbital group  2
 Library entry O      D cc-pVDZ              selected for orbital group  2
 Library entry H      S cc-pVDZ              selected for orbital group  3
 Library entry H      P cc-pVDZ              selected for orbital group  3

1PROGRAM * SEWARD (Integral evaluation for generally contracted gaussian basis sets)     Author: Roland Lindh, 1990

 Geometry written to block  1 of record 700


 Point group  C1  



 ATOMIC COORDINATES

 NR  ATOM    CHARGE       X              Y              Z

   1  C       6.00    3.356679989    1.344213870   -0.089432863
   2  C       6.00    0.929643730   -0.113407808   -0.371316283
   3  C       6.00    0.851145377   -2.903208972    0.191657152
   4  O       8.00   -1.059386882    1.373390975    0.480754407
   5  O       8.00   -3.472763091    0.175063908   -0.227755230
   6  H       1.00    4.885902867    0.400305665   -1.155404669
   7  H       1.00    3.137973059    3.294292109   -0.806298062
   8  H       1.00    3.959432414    1.463749129    1.923012230
   9  H       1.00   -0.953772862   -3.746195877   -0.415447142
  10  H       1.00    2.422727987   -3.867951053   -0.787826957
  11  H       1.00    1.061890335   -3.247744500    2.258151434
  12  H       1.00   -3.756609235    1.041456791   -1.827435108

 Bond lengths in Bohr (Angstrom)

 1-2  2.845105309  1-6  2.089445190  1-7  2.089146614  1-8  2.104170719  2-3  2.847119880
     ( 1.505564887)     ( 1.105686774)     ( 1.105528774)     ( 1.113479188)     ( 1.506630952)

  2- 4  2.625421463   3- 9  2.082530287   3-10  2.088058501   3-11  2.105591790   4- 5  2.786100930
       ( 1.389313202)       ( 1.102027565)       ( 1.104952970)       ( 1.114231187)       ( 1.474341114)

  5-12  1.841244409
       ( 0.974344577)

 Bond angles

  1-2-3  120.39382132   1-2-4  108.90438595   2-1-6  110.01984036   2-1-7  110.78860132

  2- 1- 8  111.60622066   2- 3- 9  111.27792335   2- 3-10  109.82937464   2- 3-11  110.58752490

  2- 4- 5  109.27757316   3- 2- 4  118.02427609   4- 5-12   98.74793701   6- 1- 7  108.85890978

  6- 1- 8  107.69454023   7- 1- 8  107.76663480   9- 3-10  109.18054641   9- 3-11  107.85565362

 10- 3-11  108.02581081

 NUCLEAR CHARGE:                   41
 NUMBER OF PRIMITIVE AOS:         184
 NUMBER OF SYMMETRY AOS:          179
 NUMBER OF CONTRACTIONS:          105   ( 105A   )
 NUMBER OF CORE ORBITALS:           5   (   5A   )
 NUMBER OF VALENCE ORBITALS:       27   (  27A   )


 NUCLEAR REPULSION ENERGY  183.24696243


 Eigenvalues of metric

         1 0.345E-02 0.435E-02 0.105E-01 0.141E-01 0.182E-01 0.214E-01 0.331E-01 0.345E-01


 Contracted 2-electron integrals neglected if value below      1.0D-16
 AO integral compression algorithm  1   Integral accuracy      1.0D-16

     127.664 MB (compressed) written to integral file ( 93.2%)

     Node minimum: 40.632 MB, node maximum: 44.302 MB


 NUMBER OF SORTED TWO-ELECTRON INTEGRALS:    5164320.     BUFFER LENGTH:  32768
 NUMBER OF SEGMENTS:   1  SEGMENT LENGTH:    5164320      RECORD LENGTH: 524288

 Memory used in sort:       5.72 MW

 SORT1 READ    17075251. AND WROTE     5135916. INTEGRALS IN     15 RECORDS. CPU TIME:     0.19 SEC, REAL TIME:     0.23 SEC
 SORT2 READ    15396654. AND WROTE    15487395. INTEGRALS IN    489 RECORDS. CPU TIME:     0.06 SEC, REAL TIME:     0.09 SEC

 Node minimum:     5160610.  Node maximum:     5164320. integrals

 OPERATOR DM      FOR CENTER  0  COORDINATES:    0.000000    0.000000    0.000000


 **********************************************************************************************************************************
 DATASETS  * FILE   NREC   LENGTH (MB)   RECORD NAMES
              1      18        3.17       500      610      700      900      950      970     1000      129      960     1100   
                                          VAR    BASINP    GEOM    SYMINP    ZMAT    AOBASIS   BASIS     P2S    ABASIS      S 
                                         1400     1410     1200     1210     1080     1600     1650     1700   
                                           T        V       H0       H01     AOSYM     SMH    MOLCAS    OPER   

 PROGRAMS   *        TOTAL       INT
 CPU TIMES  *         0.80      0.75
 REAL TIME  *         1.18 SEC
 DISK USED  *       305.97 MB      
 GA USED    *         0.00 MB       (max)       0.00 MB       (current)
 **********************************************************************************************************************************

1PROGRAM * RHF-SCF (OPEN SHELL)       Authors: W. Meyer, H.-J. Werner


 NUMBER OF ELECTRONS:      21+   20-    SPACE SYMMETRY=1    SPIN SYMMETRY: Doublet 
 CONVERGENCE THRESHOLDS:    1.00E-10 (Density)    1.00E-11 (Energy)
 MAX. NUMBER OF ITERATIONS:      200
 INTERPOLATION TYPE:            DIIS
 INTERPOLATION STEPS:              2 (START)      1 (STEP)
 LEVEL SHIFTS:                 -0.30 (CLOSED)  0.00 (OPEN) 



 Orbital guess generated from atomic densities. Full valence occupancy:   32

 Molecular orbital dump at record        2100.2

 ITERATION    DDIFF          GRAD             ENERGY        2-EL.EN.            DIPOLE MOMENTS         DIIS
    1      0.000D+00      0.000D+00      -267.17831403    555.868213    0.57054    0.05064   -0.74931    0
    2      0.000D+00      0.617D-02      -267.24897618    555.786884    0.41419   -0.13034   -0.59893    1
    3      0.927D-02      0.214D-02      -267.26114519    555.704955    0.39362   -0.05871   -0.62617    2
    4      0.336D-02      0.912D-03      -267.26474928    555.857230    0.37896   -0.09894   -0.64258    3
    5      0.186D-02      0.363D-03      -267.26531758    555.828490    0.38145   -0.09252   -0.63555    4
    6      0.792D-03      0.110D-03      -267.26539384    555.814753    0.37970   -0.09233   -0.63828    5
    7      0.277D-03      0.510D-04      -267.26541387    555.811766    0.37898   -0.09208   -0.63777    6
    8      0.143D-03      0.272D-04      -267.26541989    555.809813    0.37925   -0.09220   -0.63799    7
    9      0.921D-04      0.115D-04      -267.26542080    555.810137    0.37944   -0.09215   -0.63774    8
   10      0.365D-04      0.499D-05      -267.26542096    555.810742    0.37970   -0.09217   -0.63781    9
   11      0.146D-04      0.196D-05      -267.26542098    555.810584    0.37975   -0.09216   -0.63781    9
   12      0.649D-05      0.668D-06      -267.26542099    555.810719    0.37977   -0.09216   -0.63781    9
   13      0.227D-05      0.226D-06      -267.26542099    555.810634    0.37977   -0.09216   -0.63781    9
   14      0.630D-06      0.755D-07      -267.26542099    555.810643    0.37977   -0.09216   -0.63781    9
   15      0.192D-06      0.299D-07      -267.26542099    555.810639    0.37977   -0.09216   -0.63781    9
   16      0.821D-07      0.144D-07      -267.26542099    555.810641    0.37977   -0.09216   -0.63781    9
   17      0.371D-07      0.745D-08      -267.26542099    555.810641    0.37977   -0.09216   -0.63781    9
   18      0.220D-07      0.340D-08      -267.26542099    555.810641    0.37977   -0.09216   -0.63781    9
   19      0.113D-07      0.132D-08      -267.26542099    555.810641    0.37977   -0.09216   -0.63781    9
   20      0.442D-08      0.562D-09      -267.26542099    555.810641    0.37977   -0.09216   -0.63781    9
   21      0.164D-08      0.284D-09      -267.26542099    555.810641    0.37977   -0.09216   -0.63781    9
   22      0.746D-09      0.160D-09      -267.26542099    555.810641    0.37977   -0.09216   -0.63781    9
   23      0.441D-09      0.789D-10      -267.26542099    555.810641    0.37977   -0.09216   -0.63781    9
   24      0.261D-09      0.314D-10      -267.26542099    555.810641    0.37977   -0.09216   -0.63781    9
   25      0.923D-10      0.128D-10      -267.26542099    555.810641    0.37977   -0.09216   -0.63781    0

 Final alpha occupancy:  21
 Final beta  occupancy:  20

 !RHF STATE 1.1 Energy               -267.265420986741
 Nuclear energy                       183.24696243
 One-electron energy                 -728.41770382
 Two-electron energy                  277.90532041
 Virial quotient                       -1.00154916
 !RHF STATE 1.1 Dipole moment           0.37977234    -0.09216349    -0.63780708
 Dipole moment /Debye                   0.96522178    -0.23424089    -1.62103773

 Orbital energies:

         1.1          2.1          3.1          4.1          5.1          6.1          7.1          8.1          9.1         10.1
    -20.630427   -20.628810   -11.279201   -11.237918   -11.232142    -1.470344    -1.240796    -1.023271    -0.945362    -0.768555

        11.1         12.1         13.1         14.1         15.1         16.1         17.1         18.1         19.1         20.1
     -0.704649    -0.643141    -0.626823    -0.588815    -0.545116    -0.543381    -0.538881    -0.516965    -0.493024    -0.469804

        21.1         22.1         23.1
     -0.352215     0.181286     0.183566


 **********************************************************************************************************************************
 DATASETS  * FILE   NREC   LENGTH (MB)   RECORD NAMES
              1      18        3.17       500      610      700      900      950      970     1000      129      960     1100   
                                          VAR    BASINP    GEOM    SYMINP    ZMAT    AOBASIS   BASIS     P2S    ABASIS      S 
                                         1400     1410     1200     1210     1080     1600     1650     1700   
                                           T        V       H0       H01     AOSYM     SMH    MOLCAS    OPER   

              2       3        0.77       700     1000     2100   
                                         GEOM     BASIS     RHF  

 PROGRAMS   *        TOTAL       RHF       INT
 CPU TIMES  *         1.67      0.87      0.75
 REAL TIME  *         2.19 SEC
 DISK USED  *       322.54 MB      
 SF USED    *         0.04 MB      
 GA USED    *         0.00 MB       (max)       0.00 MB       (current)
 **********************************************************************************************************************************


1PROGRAM * CCSD (Unrestricted open-shell coupled cluster)     Authors: C. Hampel, H.-J. Werner, 1991, M. Deegan, P.J. Knowles, 1992


 Convergence thresholds:  THRVAR = 1.00D-08  THRDEN = 1.00D-10

 CCSD(T)     terms to be evaluated (factor= 1.000)


 Number of core orbitals:           5 (   5 )
 Number of closed-shell orbitals:  15 (  15 )
 Number of active  orbitals:        1 (   1 )
 Number of external orbitals:      84 (  84 )

 Memory could be reduced to 24.91 Mwords without degradation in triples

 Number of N-1 electron functions:              31
 Number of N-2 electron functions:             465
 Number of singly external CSFs:              2635
 Number of doubly external CSFs:           2537250
 Total number of CSFs:                     2539885

 Molecular orbitals read from record     2100.2  Type=RHF/CANONICAL (state 1.1)

 Integral transformation finished. Total CPU:   0.69 sec, npass=  1  Memory used:  12.63 MW

 Starting RMP2 calculation

 ITER.      SQ.NORM     CORR.ENERGY   TOTAL ENERGY   ENERGY CHANGE        DEN1      VAR(S)    VAR(P)  DIIS     TIME
   1      1.24299765    -0.78635376  -268.05177475    -0.78635376    -0.00304907  0.20D-04  0.11D-02  1  1     0.95
   2      1.24563811    -0.78964195  -268.05506294    -0.00328819    -0.00000474  0.54D-06  0.19D-05  2  2     1.19
   3      1.24570365    -0.78968401  -268.05510500    -0.00004206    -0.00000003  0.16D-07  0.68D-08  3  3     1.44
   4      1.24570460    -0.78968401  -268.05510500    -0.00000000    -0.00000000  0.27D-09  0.38D-10  4  4     1.73
   5      1.24570469    -0.78968404  -268.05510503    -0.00000003    -0.00000000  0.25D-11  0.65D-12  5  5     2.03
   6      1.24570470    -0.78968405  -268.05510504    -0.00000001    -0.00000000  0.28D-13  0.87D-14  6  6     2.36
   7      1.24570470    -0.78968405  -268.05510504     0.00000000    -0.00000000  0.47D-15  0.12D-15  6  1     2.68
   8      1.24570470    -0.78968405  -268.05510504     0.00000000    -0.00000000  0.60D-17  0.13D-17  6  2     3.01

 Norm of t1 vector:      0.03893786      S-energy:    -0.00227219      T1 diagnostic:  0.00055053
 Norm of t2 vector:      0.49415437      P-energy:    -0.78741186
                                         Alpha-Beta:  -0.59339116
                                         Alpha-Alpha: -0.10094135
                                         Beta-Beta:   -0.09307936

 Spin contamination <S**2-Sz**2-Sz>     0.00104051
  Reference energy                   -267.265420986740
  RHF-RMP2 correlation energy          -0.789684049713
 !RHF-RMP2 energy                    -268.055105036453

 Starting UCCSD calculation

 ITER.      SQ.NORM     CORR.ENERGY   TOTAL ENERGY   ENERGY CHANGE        DEN1      VAR(S)    VAR(P)  DIIS     TIME
   1      1.26277531    -0.80903160  -268.07445259    -0.80903160    -0.02515083  0.38D-02  0.59D-02  1  1     7.60
   2      1.29154296    -0.83643628  -268.10185726    -0.02740467    -0.00201023  0.22D-03  0.66D-03  2  2    12.22
   3      1.30148106    -0.84093304  -268.10635403    -0.00449677    -0.00032454  0.19D-03  0.56D-04  3  3    16.83
   4      1.30639243    -0.84240960  -268.10783059    -0.00147655    -0.00007208  0.43D-04  0.14D-04  4  4    21.51
   5      1.30912262    -0.84279777  -268.10821876    -0.00038817    -0.00002366  0.19D-04  0.32D-05  5  5    26.21
   6      1.31106185    -0.84300224  -268.10842322    -0.00020447    -0.00000645  0.42D-05  0.12D-05  6  6    30.94
   7      1.31201079    -0.84306103  -268.10848202    -0.00005879    -0.00000208  0.14D-05  0.37D-06  6  2    35.71
   8      1.31245153    -0.84310364  -268.10852463    -0.00004261    -0.00000065  0.45D-06  0.11D-06  6  1    40.48
   9      1.31263628    -0.84310821  -268.10852919    -0.00000457    -0.00000022  0.15D-06  0.35D-07  6  4    45.25
  10      1.31269915    -0.84311112  -268.10853210    -0.00000291    -0.00000005  0.34D-07  0.95D-08  6  3    50.03
  11      1.31272851    -0.84310986  -268.10853085     0.00000126    -0.00000002  0.13D-07  0.28D-08  6  5    54.83
  12      1.31273884    -0.84310960  -268.10853058     0.00000026    -0.00000000  0.26D-08  0.95D-09  6  6    59.60
  13      1.31273768    -0.84310868  -268.10852967     0.00000091    -0.00000000  0.96D-09  0.28D-09  6  2    64.37
  14      1.31273248    -0.84310784  -268.10852883     0.00000084    -0.00000000  0.21D-09  0.67D-10  6  1    69.17
  15      1.31272841    -0.84310725  -268.10852824     0.00000059    -0.00000000  0.78D-10  0.19D-10  6  4    73.96
  16      1.31272523    -0.84310687  -268.10852786     0.00000038    -0.00000000  0.28D-10  0.62D-11  6  3    78.76
  17      1.31272303    -0.84310663  -268.10852762     0.00000024    -0.00000000  0.10D-10  0.24D-11  6  5    83.56
  18      1.31272213    -0.84310657  -268.10852756     0.00000006    -0.00000000  0.40D-11  0.86D-12  6  6    88.38
  19      1.31272153    -0.84310654  -268.10852753     0.00000003    -0.00000000  0.16D-11  0.37D-12  6  2    93.16
  20      1.31272121    -0.84310653  -268.10852751     0.00000001    -0.00000000  0.59D-12  0.13D-12  6  1    97.96
  21      1.31272105    -0.84310652  -268.10852750     0.00000001    -0.00000000  0.28D-12  0.57D-13  6  4   102.77
  22      1.31272093    -0.84310651  -268.10852749     0.00000001    -0.00000000  0.73D-13  0.21D-13  6  3   107.59
  23      1.31272087    -0.84310650  -268.10852749     0.00000000    -0.00000000  0.21D-13  0.62D-14  6  5   113.59
  24      1.31272086    -0.84310651  -268.10852749    -0.00000000    -0.00000000  0.67D-14  0.22D-14  6  6   118.38
  25      1.31272087    -0.84310651  -268.10852749    -0.00000000    -0.00000000  0.21D-14  0.52D-15  6  2   123.21
  26      1.31272087    -0.84310651  -268.10852749    -0.00000000    -0.00000000  0.76D-15  0.15D-15  6  1   128.00
  27      1.31272088    -0.84310651  -268.10852750    -0.00000000    -0.00000000  0.20D-15  0.62D-16  6  3   132.80
  28      1.31272089    -0.84310651  -268.10852750    -0.00000000    -0.00000000  0.29D-16  0.11D-16  6  4   137.59
  29      1.31272089    -0.84310651  -268.10852750    -0.00000000    -0.00000000  0.70D-17  0.29D-17  6  5   142.39
  30      1.31272089    -0.84310651  -268.10852750    -0.00000000    -0.00000000  0.15D-17  0.53D-18  6  6   147.18
  31      1.31272089    -0.84310651  -268.10852750    -0.00000000    -0.00000000  0.35D-18  0.10D-18  6  2   151.97

 Norm of t1 vector:      0.13870672      S-energy:    -0.00282176      T1 diagnostic:  0.01616776
                                                                       D1 diagnostic:  0.06281742
 Norm of t2 vector:      0.54173918      P-energy:    -0.84028474
                                         Alpha-Beta:  -0.66483452
                                         Alpha-Alpha: -0.09147672
                                         Beta-Beta:   -0.08397351

 Spin contamination <S**2-Sz**2-Sz>     0.00217134

 Memory could be reduced to 28.85 Mwords without degradation in triples
 

 RESULTS
 =======

  Reference energy                   -267.265420986740
  UCCSD singles energy                 -0.002821764813
  UCCSD pair energy                    -0.840284744291
  UCCSD correlation energy             -0.843106509104
  Triples (T) contribution             -0.024969481655
  Total correlation energy             -0.868075990759
 
  RHF-UCCSD energy                   -268.108527495845
  RHF-UCCSD[T] energy                -268.134832243870
  RHF-UCCSD-T energy                 -268.133075666294
 !RHF-UCCSD(T) energy                -268.133496977499

 Program statistics:

 Available memory in ccsd:               999997692
 Min. memory needed in ccsd:               7337057
 Max. memory used in ccsd:                10523002
 Max. memory used in cckext:              10867977 (31 integral passes)
 Max. memory used in cckint:              12633073 ( 1 integral passes)



 **********************************************************************************************************************************
 DATASETS  * FILE   NREC   LENGTH (MB)   RECORD NAMES
              1      18        3.17       500      610      700      900      950      970     1000      129      960     1100   
                                          VAR    BASINP    GEOM    SYMINP    ZMAT    AOBASIS   BASIS     P2S    ABASIS      S 
                                         1400     1410     1200     1210     1080     1600     1650     1700   
                                           T        V       H0       H01     AOSYM     SMH    MOLCAS    OPER   

              2       3        0.77       700     1000     2100   
                                         GEOM     BASIS     RHF  

 PROGRAMS   *        TOTAL  UCCSD(T)       RHF       INT
 CPU TIMES  *       190.21    188.53      0.87      0.75
 REAL TIME  *       198.78 SEC
 DISK USED  *         1.29 GB      
 SF USED    *       553.73 MB      
 GA USED    *         0.00 MB       (max)       0.00 MB       (current)
 **********************************************************************************************************************************

        UCCSD(T)        RHF-SCF 
   -268.13349698   -267.26542099
 **********************************************************************************************************************************
 Variable memory released
