
 Primary working directories    : /tmp/320938.66.gen6.q
 Secondary working directories  : /tmp/320938.66.gen6.q
 Wavefunction directory         : /home/vulcan/mel64643/wfu/
 Main file repository           : /tmp/320938.66.gen6.q/

 ARCHNAME  : Linux/x86_64
 FC        : /opt/intel/compilers_and_libraries_2016.1.150/linux/bin/intel64/ifort
 FCVERSION : 16.0.1
 BLASLIB   : -mkl
 id        : ccgc

 Nodes     nprocs
 n080         3
 Number of processes for MPI-2 version of Molpro:   nprocs(total)=    4   nprocs(compute)=    3   nprocs(helper)=    1
 ga_uses_ma=false, calling ma_init with nominal heap.
 GA-space will be limited to   8.0 MW (determined by -G option)

 Using customized tuning parameters: mindgm=10; mindgv=16; mindgc=4; mindgr=1; noblas=0; mincuda=1000; minvec=7
 default implementation of scratch files=sf  

 ***,Frequencies for min3
 memory,1000,m
 gthresh,energy=1.0d-10,orbital=1.0d-10,oneint=1.0d-16,twoint=1.0d-16,optgrad=1.0d-6,compress=1.0d-13
 geomtyp=xyz
 
  geometry = {
  12
  arbitrary comment
     C    1.776964391707    0.711398808326   -0.047331391796
     C    0.491811976407   -0.059992870174   -0.196493901896
     C    0.450332819107   -1.536294019674    0.101417522804
     O   -0.560767745493    0.727234937526    0.254453964104
     O   -1.837840335593    0.092269037726   -0.120531795196
     H    2.585373063107    0.211465914126   -0.609253730037
     H    1.660339334268    1.745111612343   -0.427577092691
     H    2.095743333472    0.773362032463    1.016654515224
     H   -0.505185305606   -1.983105879663   -0.219912130183
     H    1.281513008394   -2.047958179727   -0.417454417566
     H    0.561907348727   -1.719490154826    1.194584899491
     H   -1.988007173913    0.550702659965   -0.966859118507
  }
 
 basis=cc-pvdz
 {rhf;maxit,200}
 {uccsd(t);maxit,200}

 Variables initialized (661), CPU time= 0.00 sec
 Commands  initialized (458), CPU time= 0.01 sec, 486 directives.
 Default parameters read. Elapsed time= 0.05 sec

 Checking input...
 Passed
1


                                         ***  PROGRAM SYSTEM MOLPRO  ***
                         Copyright, University College Cardiff Consultants Limited, 2008

                                    Version 2010.1 linked May 16 2016 07:17:05


 **********************************************************************************************************************************
 LABEL *   Frequencies for min3                                                          
 Linux-4.4.3/n080(x86_64) 64 bit mpp version                                             DATE: 07-Mar-20          TIME: 01:19:34  
 **********************************************************************************************************************************

 SHA1:             9e8077add272b0f3cad6f7df79ec5211205f459d
 **********************************************************************************************************************************

 THRESHOLDS:

 ZERO    =  1.00D-12  ONEINT  =  1.00D-16  TWOINT  =  1.00D-16  PREFAC  =  1.00D-14  LOCALI  =  1.00D-09  EORDER  =  1.00D-04
 ENERGY  =  1.00D-10  ETEST   =  0.00D+00  EDENS   =  0.00D+00  THRDEDEF=  1.00D-06  GRADIENT=  1.00D-02  STEP    =  1.00D-03
 ORBITAL =  1.00D-10  CIVEC   =  1.00D-05  COEFF   =  1.00D-04  PRINTCI =  5.00D-02  PUNCHCI =  9.90D+01  OPTGRAD =  1.00D-06
 OPTENERG=  1.00D-06  OPTSTEP =  3.00D-04  THRGRAD =  1.00D-10  COMPRESS=  1.00D-13  VARMIN  =  1.00D-07  VARMAX  =  1.00D-03
 THRDOUB =  0.00D+00  THRDIV  =  1.00D-05  THRRED  =  1.00D-07  THRPSP  =  1.00D+00  THRDC   =  1.00D-10  THRCS   =  1.00D-10
 THRNRM  =  1.00D-08  THREQ   =  0.00D+00  THRDE   =  1.00D+00  THRREF  =  1.00D-05  SPARFAC =  1.00D+00  THRDLP  =  1.00D-07
 THRDIA  =  1.00D-10  THRDLS  =  1.00D-07  THRGPS  =  0.00D+00  THRKEX  =  0.00D+00  THRDIS  =  2.00D-01  THRVAR  =  1.00D-10
 THRLOC  =  1.00D-06  THRGAP  =  1.00D-06  THRLOCT = -1.00D+00  THRGAPT = -1.00D+00  THRORB  =  1.00D-06  THRMLTP =  0.00D+00
 THRCPQCI=  1.00D-10  KEXTA   =  0.00D+00  THRCOARS=  0.00D+00  SYMTOL  =  1.00D-06  GRADTOL =  1.00D-06  THROVL  =  1.00D-08
 THRORTH =  1.00D-08  GRID    =  1.00D-06  GRIDMAX =  1.00D-03  DTMAX   =  0.00D+00

 SETTING GEOMTYP        =    XYZ

 Variable memory set to 1000000000 words,  buffer space   230000 words

 SETTING BASIS          =    CC-PVDZ


 Recomputing integrals since basis changed


 Using spherical harmonics

 Library entry C      S cc-pVDZ              selected for orbital group  1
 Library entry C      P cc-pVDZ              selected for orbital group  1
 Library entry C      D cc-pVDZ              selected for orbital group  1
 Library entry O      S cc-pVDZ              selected for orbital group  2
 Library entry O      P cc-pVDZ              selected for orbital group  2
 Library entry O      D cc-pVDZ              selected for orbital group  2
 Library entry H      S cc-pVDZ              selected for orbital group  3
 Library entry H      P cc-pVDZ              selected for orbital group  3

1PROGRAM * SEWARD (Integral evaluation for generally contracted gaussian basis sets)     Author: Roland Lindh, 1990

 Geometry written to block  1 of record 700


 Point group  C1  



 ATOMIC COORDINATES

 NR  ATOM    CHARGE       X              Y              Z

   1  C       6.00    3.357976046    1.344348918   -0.089443368
   2  C       6.00    0.929389944   -0.113370094   -0.371319661
   3  C       6.00    0.851005696   -2.903174955    0.191651343
   4  O       8.00   -1.059697462    1.374274865    0.480848305
   5  O       8.00   -3.473014908    0.174363212   -0.227772083
   6  H       1.00    4.885647037    0.399612664   -1.151322694
   7  H       1.00    3.137586627    3.297783016   -0.808003605
   8  H       1.00    3.960380942    1.461442442    1.921198604
   9  H       1.00   -0.954661873   -3.747527002   -0.415573699
  10  H       1.00    2.421708620   -3.870080088   -0.788874522
  11  H       1.00    1.061851000   -3.249365478    2.257438301
  12  H       1.00   -3.756789106    1.040677207   -1.827098942

 Bond lengths in Bohr (Angstrom)

 1-2  2.846476668  1-6  2.086598416  1-7  2.093037287  1-8  2.102209241  2-3  2.847119878
     ( 1.506290578)     ( 1.104180326)     ( 1.107587630)     ( 1.112441219)     ( 1.506630951)

  2- 4  2.625975338   3- 9  2.083767742   3-10  2.088885871   3-11  2.105179179   4- 5  2.786760112
       ( 1.389606300)       ( 1.102682398)       ( 1.105390795)       ( 1.114012842)       ( 1.474689938)

  5-12  1.840889496
       ( 0.974156765)

 Bond angles

  1-2-3  120.37866573   1-2-4  108.90555081   2-1-6  110.02247457   2-1-7  110.73960885

  2- 1- 8  111.57546415   2- 3- 9  111.30196319   2- 3-10  109.87959658   2- 3-11  110.63495883

  2- 4- 5  109.23946113   3- 2- 4  118.03986083   4- 5-12   98.73013227   6- 1- 7  108.96219823

  6- 1- 8  107.58725310   7- 1- 8  107.85110946   9- 3-10  109.10084209   9- 3-11  107.82486496

 10- 3-11  108.01031697

 NUCLEAR CHARGE:                   41
 NUMBER OF PRIMITIVE AOS:         184
 NUMBER OF SYMMETRY AOS:          179
 NUMBER OF CONTRACTIONS:          105   ( 105A   )
 NUMBER OF CORE ORBITALS:           5   (   5A   )
 NUMBER OF VALENCE ORBITALS:       27   (  27A   )


 NUCLEAR REPULSION ENERGY  183.21763867


 Eigenvalues of metric

         1 0.345E-02 0.435E-02 0.105E-01 0.141E-01 0.182E-01 0.214E-01 0.331E-01 0.346E-01


 Contracted 2-electron integrals neglected if value below      1.0D-16
 AO integral compression algorithm  1   Integral accuracy      1.0D-16

     127.664 MB (compressed) written to integral file ( 93.2%)

     Node minimum: 35.127 MB, node maximum: 56.361 MB


 NUMBER OF SORTED TWO-ELECTRON INTEGRALS:    5164320.     BUFFER LENGTH:  32768
 NUMBER OF SEGMENTS:   1  SEGMENT LENGTH:    5164320      RECORD LENGTH: 524288

 Memory used in sort:       5.72 MW

 SORT1 READ    17075332. AND WROTE     5135894. INTEGRALS IN     15 RECORDS. CPU TIME:     0.30 SEC, REAL TIME:     0.35 SEC
 SORT2 READ    15396615. AND WROTE    15487395. INTEGRALS IN    402 RECORDS. CPU TIME:     0.09 SEC, REAL TIME:     0.12 SEC

 Node minimum:     5160610.  Node maximum:     5164320. integrals

 OPERATOR DM      FOR CENTER  0  COORDINATES:    0.000000    0.000000    0.000000


 **********************************************************************************************************************************
 DATASETS  * FILE   NREC   LENGTH (MB)   RECORD NAMES
              1      18        3.17       500      610      700      900      950      970     1000      129      960     1100   
                                          VAR    BASINP    GEOM    SYMINP    ZMAT    AOBASIS   BASIS     P2S    ABASIS      S 
                                         1400     1410     1200     1210     1080     1600     1650     1700   
                                           T        V       H0       H01     AOSYM     SMH    MOLCAS    OPER   

 PROGRAMS   *        TOTAL       INT
 CPU TIMES  *         1.13      1.05
 REAL TIME  *         1.52 SEC
 DISK USED  *       318.07 MB      
 GA USED    *         0.00 MB       (max)       0.00 MB       (current)
 **********************************************************************************************************************************

1PROGRAM * RHF-SCF (OPEN SHELL)       Authors: W. Meyer, H.-J. Werner


 NUMBER OF ELECTRONS:      21+   20-    SPACE SYMMETRY=1    SPIN SYMMETRY: Doublet 
 CONVERGENCE THRESHOLDS:    1.00E-10 (Density)    1.00E-11 (Energy)
 MAX. NUMBER OF ITERATIONS:      200
 INTERPOLATION TYPE:            DIIS
 INTERPOLATION STEPS:              2 (START)      1 (STEP)
 LEVEL SHIFTS:                 -0.30 (CLOSED)  0.00 (OPEN) 



 Orbital guess generated from atomic densities. Full valence occupancy:   32

 Molecular orbital dump at record        2100.2

 ITERATION    DDIFF          GRAD             ENERGY        2-EL.EN.            DIPOLE MOMENTS         DIIS
    1      0.000D+00      0.000D+00      -267.17823308    555.808441    0.57053    0.04983   -0.74933    0
    2      0.000D+00      0.617D-02      -267.24890807    555.729786    0.41454   -0.13165   -0.59834    1
    3      0.927D-02      0.214D-02      -267.26108665    555.647901    0.39431   -0.05995   -0.62558    2
    4      0.336D-02      0.912D-03      -267.26469657    555.800089    0.37973   -0.10028   -0.64192    3
    5      0.186D-02      0.364D-03      -267.26526602    555.771439    0.38228   -0.09388   -0.63485    4
    6      0.793D-03      0.110D-03      -267.26534250    555.757703    0.38055   -0.09371   -0.63758    5
    7      0.277D-03      0.511D-04      -267.26536266    555.754686    0.37983   -0.09346   -0.63707    6
    8      0.144D-03      0.273D-04      -267.26536873    555.752743    0.38011   -0.09358   -0.63728    7
    9      0.925D-04      0.115D-04      -267.26536965    555.753056    0.38029   -0.09354   -0.63704    8
   10      0.366D-04      0.501D-05      -267.26536980    555.753668    0.38055   -0.09355   -0.63710    9
   11      0.147D-04      0.196D-05      -267.26536983    555.753510    0.38060   -0.09354   -0.63711    9
   12      0.651D-05      0.671D-06      -267.26536983    555.753644    0.38062   -0.09354   -0.63711    9
   13      0.227D-05      0.226D-06      -267.26536983    555.753560    0.38062   -0.09354   -0.63710    9
   14      0.632D-06      0.758D-07      -267.26536983    555.753568    0.38062   -0.09355   -0.63710    9
   15      0.193D-06      0.301D-07      -267.26536983    555.753564    0.38062   -0.09355   -0.63710    9
   16      0.826D-07      0.145D-07      -267.26536983    555.753566    0.38063   -0.09355   -0.63710    9
   17      0.375D-07      0.752D-08      -267.26536983    555.753566    0.38063   -0.09355   -0.63710    9
   18      0.223D-07      0.342D-08      -267.26536983    555.753566    0.38063   -0.09355   -0.63710    9
   19      0.114D-07      0.133D-08      -267.26536983    555.753566    0.38063   -0.09355   -0.63710    9
   20      0.444D-08      0.568D-09      -267.26536983    555.753566    0.38063   -0.09355   -0.63710    9
   21      0.166D-08      0.287D-09      -267.26536983    555.753566    0.38063   -0.09355   -0.63710    9
   22      0.756D-09      0.162D-09      -267.26536983    555.753566    0.38063   -0.09355   -0.63710    9
   23      0.447D-09      0.797D-10      -267.26536983    555.753566    0.38063   -0.09355   -0.63710    9
   24      0.264D-09      0.317D-10      -267.26536983    555.753566    0.38063   -0.09355   -0.63710    9
   25      0.934D-10      0.129D-10      -267.26536983    555.753566    0.38063   -0.09355   -0.63710    0

 Final alpha occupancy:  21
 Final beta  occupancy:  20

 !RHF STATE 1.1 Energy               -267.265369834582
 Nuclear energy                       183.21763867
 One-electron energy                 -728.35979152
 Two-electron energy                  277.87678301
 Virial quotient                       -1.00155944
 !RHF STATE 1.1 Dipole moment           0.38062558    -0.09354589    -0.63710392
 Dipole moment /Debye                   0.96739037    -0.23775435    -1.61925057

 Orbital energies:

         1.1          2.1          3.1          4.1          5.1          6.1          7.1          8.1          9.1         10.1
    -20.630484   -20.628791   -11.279300   -11.237938   -11.232261    -1.470185    -1.240763    -1.023211    -0.945273    -0.768514

        11.1         12.1         13.1         14.1         15.1         16.1         17.1         18.1         19.1         20.1
     -0.704631    -0.642877    -0.626781    -0.588874    -0.545148    -0.543314    -0.539035    -0.516717    -0.493050    -0.469808

        21.1         22.1         23.1
     -0.352319     0.181237     0.183604


 **********************************************************************************************************************************
 DATASETS  * FILE   NREC   LENGTH (MB)   RECORD NAMES
              1      18        3.17       500      610      700      900      950      970     1000      129      960     1100   
                                          VAR    BASINP    GEOM    SYMINP    ZMAT    AOBASIS   BASIS     P2S    ABASIS      S 
                                         1400     1410     1200     1210     1080     1600     1650     1700   
                                           T        V       H0       H01     AOSYM     SMH    MOLCAS    OPER   

              2       3        0.77       700     1000     2100   
                                         GEOM     BASIS     RHF  

 PROGRAMS   *        TOTAL       RHF       INT
 CPU TIMES  *         2.49      1.37      1.05
 REAL TIME  *         3.02 SEC
 DISK USED  *       334.63 MB      
 SF USED    *         0.04 MB      
 GA USED    *         0.00 MB       (max)       0.00 MB       (current)
 **********************************************************************************************************************************


1PROGRAM * CCSD (Unrestricted open-shell coupled cluster)     Authors: C. Hampel, H.-J. Werner, 1991, M. Deegan, P.J. Knowles, 1992


 Convergence thresholds:  THRVAR = 1.00D-08  THRDEN = 1.00D-10

 CCSD(T)     terms to be evaluated (factor= 1.000)


 Number of core orbitals:           5 (   5 )
 Number of closed-shell orbitals:  15 (  15 )
 Number of active  orbitals:        1 (   1 )
 Number of external orbitals:      84 (  84 )

 Memory could be reduced to 24.91 Mwords without degradation in triples

 Number of N-1 electron functions:              31
 Number of N-2 electron functions:             465
 Number of singly external CSFs:              2635
 Number of doubly external CSFs:           2537250
 Total number of CSFs:                     2539885

 Molecular orbitals read from record     2100.2  Type=RHF/CANONICAL (state 1.1)

 Integral transformation finished. Total CPU:   0.92 sec, npass=  1  Memory used:  12.63 MW

 Starting RMP2 calculation

 ITER.      SQ.NORM     CORR.ENERGY   TOTAL ENERGY   ENERGY CHANGE        DEN1      VAR(S)    VAR(P)  DIIS     TIME
   1      1.24304426    -0.78638663  -268.05175647    -0.78638663    -0.00305016  0.20D-04  0.11D-02  1  1     1.24
   2      1.24568614    -0.78967603  -268.05504586    -0.00328940    -0.00000474  0.54D-06  0.19D-05  2  2     1.52
   3      1.24575169    -0.78971810  -268.05508793    -0.00004207    -0.00000003  0.16D-07  0.68D-08  3  3     1.81
   4      1.24575265    -0.78971810  -268.05508794    -0.00000000    -0.00000000  0.27D-09  0.38D-10  4  4     2.13
   5      1.24575273    -0.78971813  -268.05508797    -0.00000003    -0.00000000  0.25D-11  0.65D-12  5  5     2.47
   6      1.24575274    -0.78971814  -268.05508797    -0.00000001    -0.00000000  0.28D-13  0.86D-14  6  6     2.82
   7      1.24575274    -0.78971814  -268.05508797     0.00000000    -0.00000000  0.47D-15  0.12D-15  6  1     3.19
   8      1.24575274    -0.78971814  -268.05508797     0.00000000    -0.00000000  0.59D-17  0.13D-17  6  2     3.55

 Norm of t1 vector:      0.03893045      S-energy:    -0.00227151      T1 diagnostic:  0.00055025
 Norm of t2 vector:      0.49420356      P-energy:    -0.78744663
                                         Alpha-Beta:  -0.59342654
                                         Alpha-Alpha: -0.10094066
                                         Beta-Beta:   -0.09307943

 Spin contamination <S**2-Sz**2-Sz>     0.00104017
  Reference energy                   -267.265369834582
  RHF-RMP2 correlation energy          -0.789718139961
 !RHF-RMP2 energy                    -268.055087974543

 Starting UCCSD calculation

 ITER.      SQ.NORM     CORR.ENERGY   TOTAL ENERGY   ENERGY CHANGE        DEN1      VAR(S)    VAR(P)  DIIS     TIME
   1      1.26282218    -0.80905932  -268.07442916    -0.80905932    -0.02515819  0.38D-02  0.59D-02  1  1     9.50
   2      1.29160187    -0.83647118  -268.10184101    -0.02741186    -0.00201144  0.22D-03  0.66D-03  2  2    15.09
   3      1.30154561    -0.84097036  -268.10634019    -0.00449918    -0.00032468  0.19D-03  0.56D-04  3  3    20.69
   4      1.30645957    -0.84244778  -268.10781761    -0.00147742    -0.00007209  0.43D-04  0.14D-04  4  4    26.35
   5      1.30918959    -0.84283593  -268.10820577    -0.00038816    -0.00002367  0.19D-04  0.32D-05  5  5    32.04
   6      1.31112885    -0.84304043  -268.10841026    -0.00020449    -0.00000646  0.42D-05  0.12D-05  6  6    37.75
   7      1.31207824    -0.84309921  -268.10846904    -0.00005878    -0.00000208  0.14D-05  0.37D-06  6  2    43.44
   8      1.31251987    -0.84314189  -268.10851173    -0.00004269    -0.00000065  0.45D-06  0.11D-06  6  1    49.15
   9      1.31270506    -0.84314647  -268.10851631    -0.00000458    -0.00000022  0.15D-06  0.35D-07  6  4    54.86
  10      1.31276821    -0.84314940  -268.10851924    -0.00000293    -0.00000005  0.35D-07  0.95D-08  6  3    60.59
  11      1.31279771    -0.84314814  -268.10851798     0.00000126    -0.00000002  0.13D-07  0.28D-08  6  5    66.31
  12      1.31280809    -0.84314788  -268.10851772     0.00000026    -0.00000000  0.26D-08  0.95D-09  6  6    72.05
  13      1.31280695    -0.84314697  -268.10851680     0.00000092    -0.00000000  0.96D-09  0.28D-09  6  2    77.80
  14      1.31280174    -0.84314612  -268.10851596     0.00000084    -0.00000000  0.21D-09  0.67D-10  6  1    83.53
  15      1.31279767    -0.84314554  -268.10851537     0.00000059    -0.00000000  0.78D-10  0.19D-10  6  4    89.28
  16      1.31279449    -0.84314515  -268.10851499     0.00000038    -0.00000000  0.28D-10  0.63D-11  6  3    95.02
  17      1.31279228    -0.84314492  -268.10851475     0.00000024    -0.00000000  0.10D-10  0.24D-11  6  5   100.77
  18      1.31279138    -0.84314486  -268.10851469     0.00000006    -0.00000000  0.41D-11  0.87D-12  6  6   106.50
  19      1.31279077    -0.84314482  -268.10851466     0.00000003    -0.00000000  0.16D-11  0.37D-12  6  2   112.25
  20      1.31279045    -0.84314481  -268.10851464     0.00000001    -0.00000000  0.60D-12  0.13D-12  6  1   118.00
  21      1.31279029    -0.84314480  -268.10851463     0.00000001    -0.00000000  0.28D-12  0.58D-13  6  4   123.74
  22      1.31279017    -0.84314479  -268.10851462     0.00000001    -0.00000000  0.74D-13  0.21D-13  6  3   129.50
  23      1.31279011    -0.84314479  -268.10851462     0.00000000    -0.00000000  0.21D-13  0.63D-14  6  5   135.24
  24      1.31279010    -0.84314479  -268.10851462    -0.00000000    -0.00000000  0.67D-14  0.22D-14  6  6   140.99
  25      1.31279011    -0.84314479  -268.10851462    -0.00000000    -0.00000000  0.21D-14  0.52D-15  6  2   146.73
  26      1.31279011    -0.84314479  -268.10851462    -0.00000000    -0.00000000  0.77D-15  0.15D-15  6  1   152.51
  27      1.31279012    -0.84314479  -268.10851463    -0.00000000    -0.00000000  0.20D-15  0.62D-16  6  3   158.28
  28      1.31279013    -0.84314479  -268.10851463    -0.00000000    -0.00000000  0.30D-16  0.11D-16  6  4   164.04
  29      1.31279013    -0.84314479  -268.10851463    -0.00000000    -0.00000000  0.70D-17  0.29D-17  6  5   169.79
  30      1.31279013    -0.84314479  -268.10851463    -0.00000000    -0.00000000  0.15D-17  0.54D-18  6  6   175.54
  31      1.31279013    -0.84314479  -268.10851463    -0.00000000    -0.00000000  0.35D-18  0.10D-18  6  2   181.29

 Norm of t1 vector:      0.13871674      S-energy:    -0.00282110      T1 diagnostic:  0.01616937
                                                                       D1 diagnostic:  0.06282689
 Norm of t2 vector:      0.54180051      P-energy:    -0.84032369
                                         Alpha-Beta:  -0.66488110
                                         Alpha-Alpha: -0.09147269
                                         Beta-Beta:   -0.08396990

 Spin contamination <S**2-Sz**2-Sz>     0.00217138

 Memory could be reduced to 28.85 Mwords without degradation in triples
 

 RESULTS
 =======

  Reference energy                   -267.265369834582
  UCCSD singles energy                 -0.002821102182
  UCCSD pair energy                    -0.840323689444
  UCCSD correlation energy             -0.843144791626
  Triples (T) contribution             -0.024977515677
  Total correlation energy             -0.868122307302
 
  RHF-UCCSD energy                   -268.108514626207
  RHF-UCCSD[T] energy                -268.134828212508
  RHF-UCCSD-T energy                 -268.133070571096
 !RHF-UCCSD(T) energy                -268.133492141884

 Program statistics:

 Available memory in ccsd:               999997692
 Min. memory needed in ccsd:               7337057
 Max. memory used in ccsd:                10523002
 Max. memory used in cckext:              10867977 (31 integral passes)
 Max. memory used in cckint:              12633073 ( 1 integral passes)



 **********************************************************************************************************************************
 DATASETS  * FILE   NREC   LENGTH (MB)   RECORD NAMES
              1      18        3.17       500      610      700      900      950      970     1000      129      960     1100   
                                          VAR    BASINP    GEOM    SYMINP    ZMAT    AOBASIS   BASIS     P2S    ABASIS      S 
                                         1400     1410     1200     1210     1080     1600     1650     1700   
                                           T        V       H0       H01     AOSYM     SMH    MOLCAS    OPER   

              2       3        0.77       700     1000     2100   
                                         GEOM     BASIS     RHF  

 PROGRAMS   *        TOTAL  UCCSD(T)       RHF       INT
 CPU TIMES  *       223.35    220.86      1.37      1.05
 REAL TIME  *       232.66 SEC
 DISK USED  *         1.30 GB      
 SF USED    *       553.73 MB      
 GA USED    *         0.00 MB       (max)       0.00 MB       (current)
 **********************************************************************************************************************************

        UCCSD(T)        RHF-SCF 
   -268.13349214   -267.26536983
 **********************************************************************************************************************************
 Variable memory released
