
    -----------------------------------------------------------------------
          Psi4: An Open-Source Ab Initio Electronic Structure Package
                               Psi4 1.3.2 release

                         Git: Rev {HEAD} ecbda83 


    R. M. Parrish, L. A. Burns, D. G. A. Smith, A. C. Simmonett,
    A. E. DePrince III, E. G. Hohenstein, U. Bozkaya, A. Yu. Sokolov,
    R. Di Remigio, R. M. Richard, J. F. Gonthier, A. M. James,
    H. R. McAlexander, A. Kumar, M. Saitow, X. Wang, B. P. Pritchard,
    P. Verma, H. F. Schaefer III, K. Patkowski, R. A. King, E. F. Valeev,
    F. A. Evangelista, J. M. Turney, T. D. Crawford, and C. D. Sherrill,
    J. Chem. Theory Comput. 13(7) pp 3185--3197 (2017).
    (doi: 10.1021/acs.jctc.7b00174)


                         Additional Contributions by
    P. Kraus, H. Kruse, M. H. Lechner, M. C. Schieber, R. A. Shaw,
    A. Alenaizan, R. Galvelis, Z. L. Glick, S. Lehtola, and J. P. Misiewicz

    -----------------------------------------------------------------------


    Psi4 started on: Monday, 06 June 2022 11:25AM

    Process ID: 14761
    Host:       b2-24.compute.lan
    PSIDATADIR: /apps/gb/PSI4/1.3.2/share/psi4
    Memory:     500.0 MiB
    Threads:    4
    
  ==> Input File <==

--------------------------------------------------------------------------
memory 300 mb

molecule {
  O    0.000000000000    0.000000000000   -0.072222813451
  H    0.000000000000   -0.754262179868    0.573114230049
  H   -0.000000000000    0.754262179868    0.573114230049
}

set basis sto-3g
energy('scf')
--------------------------------------------------------------------------

  Memory set to 286.102 MiB by Python driver.

*** tstart() called on b2-24.compute.lan
*** at Mon Jun  6 11:25:03 2022

   => Loading Basis Set <=

    Name: STO-3G
    Role: ORBITAL
    Keyword: BASIS
    atoms 1   entry O          line    81 file /apps/gb/PSI4/1.3.2/share/psi4/basis/sto-3g.gbs 
    atoms 2-3 entry H          line    19 file /apps/gb/PSI4/1.3.2/share/psi4/basis/sto-3g.gbs 


         ---------------------------------------------------------
                                   SCF
               by Justin Turney, Rob Parrish, Andy Simmonett
                          and Daniel G. A. Smith
                              RHF Reference
                        4 Threads,    286 MiB Core
         ---------------------------------------------------------

  ==> Geometry <==

    Molecular point group: c2v
    Full point group: C2v

    Geometry (in Angstrom), charge = 0, multiplicity = 1:

       Center              X                  Y                   Z               Mass       
    ------------   -----------------  -----------------  -----------------  -----------------
         O            0.000000000000     0.000000000000    -0.072222813451    15.994914619570
         H            0.000000000000    -0.754262179868     0.573114230049     1.007825032230
         H           -0.000000000000     0.754262179868     0.573114230049     1.007825032230

  Running in c2v symmetry.

  Rotational constants: A =     22.61276  B =     14.70066  C =      8.90892 [cm^-1]
  Rotational constants: A = 677913.48918  B = 440714.56009  C = 267082.83004 [MHz]
  Nuclear repulsion =    8.880243756914457

  Charge       = 0
  Multiplicity = 1
  Electrons    = 10
  Nalpha       = 5
  Nbeta        = 5

  ==> Algorithm <==

  SCF Algorithm Type is DF.
  DIIS enabled.
  MOM disabled.
  Fractional occupation disabled.
  Guess Type is SAD.
  Energy threshold   = 1.00e-06
  Density threshold  = 1.00e-06
  Integral threshold = 0.00e+00

  ==> Primary Basis <==

  Basis Set: STO-3G
    Blend: STO-3G
    Number of shells: 5
    Number of basis function: 7
    Number of Cartesian functions: 7
    Spherical Harmonics?: true
    Max angular momentum: 1

   => Loading Basis Set <=

    Name: (STO-3G AUX)
    Role: JKFIT
    Keyword: DF_BASIS_SCF
    atoms 1   entry O          line   323 file /apps/gb/PSI4/1.3.2/share/psi4/basis/def2-svp-jkfit.gbs 
    atoms 2-3 entry H          line    23 file /apps/gb/PSI4/1.3.2/share/psi4/basis/def2-svp-jkfit.gbs 

  ==> Pre-Iterations <==

   -------------------------------------------------------
    Irrep   Nso     Nmo     Nalpha   Nbeta   Ndocc  Nsocc
   -------------------------------------------------------
     A1         4       4       0       0       0       0
     A2         0       0       0       0       0       0
     B1         1       1       0       0       0       0
     B2         2       2       0       0       0       0
   -------------------------------------------------------
    Total       7       7       5       5       5       0
   -------------------------------------------------------

  ==> Integral Setup <==

  DFHelper Memory: AOs need 0.000 GiB; user supplied 0.210 GiB. Using in-core AOs.

  ==> MemDFJK: Density-Fitted J/K Matrices <==

    J tasked:                   Yes
    K tasked:                   Yes
    wK tasked:                   No
    OpenMP threads:               4
    Memory [MiB]:               214
    Algorithm:                 Core
    Schwarz Cutoff:           1E-12
    Mask sparsity (%):       0.0000
    Fitting Condition:        1E-10

   => Auxiliary Basis Set <=

  Basis Set: (STO-3G AUX)
    Blend: DEF2-SVP-JKFIT
    Number of shells: 37
    Number of basis function: 113
    Number of Cartesian functions: 133
    Spherical Harmonics?: true
    Max angular momentum: 4

  Minimum eigenvalue in the overlap matrix is 3.6535567071E-01.
  Using Symmetric Orthogonalization.

  SCF Guess: Superposition of Atomic Densities via on-the-fly atomic UHF.

  ==> Iterations <==

                           Total Energy        Delta E     RMS |[F,P]|

   @DF-RHF iter SAD:   -74.14165911413509   -7.41417e+01   0.00000e+00 
   @DF-RHF iter   1:   -74.91000555354616   -7.68346e-01   5.68501e-02 DIIS
   @DF-RHF iter   2:   -74.96482472001352   -5.48192e-02   9.22909e-03 DIIS
   @DF-RHF iter   3:   -74.96585043977578   -1.02572e-03   1.95419e-03 DIIS
   @DF-RHF iter   4:   -74.96591765632762   -6.72166e-05   1.51453e-04 DIIS
   @DF-RHF iter   5:   -74.96591838947592   -7.33148e-07   1.92247e-05 DIIS
   @DF-RHF iter   6:   -74.96591840011382   -1.06379e-08   2.08959e-07 DIIS
  Energy and wave function converged.


  ==> Post-Iterations <==

    Orbital Energies [Eh]
    ---------------------

    Doubly Occupied:                                                      

       1A1   -20.253515     2A1    -1.257200     1B2    -0.590267  
       3A1    -0.461934     1B1    -0.393193  

    Virtual:                                                              

       4A1     0.580398     2B2     0.686159  

    Final Occupation by Irrep:
             A1    A2    B1    B2 
    DOCC [     3,    0,    1,    1 ]

  @DF-RHF Final Energy:   -74.96591840011382

   => Energetics <=

    Nuclear Repulsion Energy =              8.8802437569144566
    One-Electron Energy =                -121.7801110621775393
    Two-Electron Energy =                  37.9339489051492578
    Total Energy =                        -74.9659184001138215

Computation Completed


Properties will be evaluated at   0.000000,   0.000000,   0.000000 [a0]

Properties computed using the SCF density matrix

  Nuclear Dipole Moment: [e a0]
     X:     0.0000      Y:     0.0000      Z:     1.0742

  Electronic Dipole Moment: [e a0]
     X:     0.0000      Y:     0.0000      Z:    -0.4012

  Dipole Moment: [e a0]
     X:     0.0000      Y:     0.0000      Z:     0.6730     Total:     0.6730

  Dipole Moment: [D]
     X:     0.0000      Y:     0.0000      Z:     1.7107     Total:     1.7107


*** tstop() called on b2-24.compute.lan at Mon Jun  6 11:25:03 2022
Module time:
	user time   =       1.26 seconds =       0.02 minutes
	system time =       0.05 seconds =       0.00 minutes
	total time  =          0 seconds =       0.00 minutes
Total time:
	user time   =       1.26 seconds =       0.02 minutes
	system time =       0.05 seconds =       0.00 minutes
	total time  =          0 seconds =       0.00 minutes

    Psi4 stopped on: Monday, 06 June 2022 11:25AM
    Psi4 wall time for execution: 0:00:00.55

*** Psi4 exiting successfully. Buy a developer a beer!
