
 Primary working directories    : /tmp/320938.512.gen4.q
 Secondary working directories  : /tmp/320938.512.gen4.q
 Wavefunction directory         : /home/vulcan/mel64643/wfu/
 Main file repository           : /tmp/320938.512.gen4.q/

 ARCHNAME  : Linux/x86_64
 FC        : /opt/intel/compilers_and_libraries_2016.1.150/linux/bin/intel64/ifort
 FCVERSION : 16.0.1
 BLASLIB   : -mkl
 id        : ccgc

 Nodes     nprocs
 n038         3
 Number of processes for MPI-2 version of Molpro:   nprocs(total)=    4   nprocs(compute)=    3   nprocs(helper)=    1
 ga_uses_ma=false, calling ma_init with nominal heap.
 GA-space will be limited to   8.0 MW (determined by -G option)

 Using customized tuning parameters: mindgm=10; mindgv=16; mindgc=4; mindgr=1; noblas=0; mincuda=1000; minvec=7
 default implementation of scratch files=sf  

 ***,Frequencies for min3
 memory,1000,m
 gthresh,energy=1.0d-10,orbital=1.0d-10,oneint=1.0d-16,twoint=1.0d-16,optgrad=1.0d-6,compress=1.0d-13
 geomtyp=xyz
 
  geometry = {
  12
  arbitrary comment
     C    1.777650235407    0.711470272662   -0.047336950898
     C    0.491677678169   -0.059318673587   -0.196508055171
     C    0.450162155110   -1.536496949587    0.101470049718
     O   -0.560868098824    0.727069291004    0.254419577843
     O   -1.837965147177    0.092125042249   -0.120519546916
     H    2.585244839438    0.211166810813   -0.611497040945
     H    1.660346900123    1.742625001111   -0.426643893840
     H    2.095035423554    0.773836678356    1.017576053067
     H   -0.505060070171   -1.982964760161   -0.219997835907
     H    1.281700401815   -2.047455911321   -0.417094639193
     H    0.561623788265   -1.719326438159    1.194803179632
     H   -1.988169234319    0.550658662104   -0.967002268291
  }
 
 basis=cc-pvdz
 {rhf;maxit,200}
 {uccsd(t);maxit,200}

 Variables initialized (661), CPU time= 0.01 sec
 Commands  initialized (458), CPU time= 0.01 sec, 486 directives.
 Default parameters read. Elapsed time= 0.07 sec

 Checking input...
 Passed
1


                                         ***  PROGRAM SYSTEM MOLPRO  ***
                         Copyright, University College Cardiff Consultants Limited, 2008

                                    Version 2010.1 linked May 16 2016 07:17:05


 **********************************************************************************************************************************
 LABEL *   Frequencies for min3                                                          
 Linux-4.4.3/n038(x86_64) 64 bit mpp version                                             DATE: 07-Mar-20          TIME: 03:59:05  
 **********************************************************************************************************************************

 SHA1:             9e8077add272b0f3cad6f7df79ec5211205f459d
 **********************************************************************************************************************************

 THRESHOLDS:

 ZERO    =  1.00D-12  ONEINT  =  1.00D-16  TWOINT  =  1.00D-16  PREFAC  =  1.00D-14  LOCALI  =  1.00D-09  EORDER  =  1.00D-04
 ENERGY  =  1.00D-10  ETEST   =  0.00D+00  EDENS   =  0.00D+00  THRDEDEF=  1.00D-06  GRADIENT=  1.00D-02  STEP    =  1.00D-03
 ORBITAL =  1.00D-10  CIVEC   =  1.00D-05  COEFF   =  1.00D-04  PRINTCI =  5.00D-02  PUNCHCI =  9.90D+01  OPTGRAD =  1.00D-06
 OPTENERG=  1.00D-06  OPTSTEP =  3.00D-04  THRGRAD =  1.00D-10  COMPRESS=  1.00D-13  VARMIN  =  1.00D-07  VARMAX  =  1.00D-03
 THRDOUB =  0.00D+00  THRDIV  =  1.00D-05  THRRED  =  1.00D-07  THRPSP  =  1.00D+00  THRDC   =  1.00D-10  THRCS   =  1.00D-10
 THRNRM  =  1.00D-08  THREQ   =  0.00D+00  THRDE   =  1.00D+00  THRREF  =  1.00D-05  SPARFAC =  1.00D+00  THRDLP  =  1.00D-07
 THRDIA  =  1.00D-10  THRDLS  =  1.00D-07  THRGPS  =  0.00D+00  THRKEX  =  0.00D+00  THRDIS  =  2.00D-01  THRVAR  =  1.00D-10
 THRLOC  =  1.00D-06  THRGAP  =  1.00D-06  THRLOCT = -1.00D+00  THRGAPT = -1.00D+00  THRORB  =  1.00D-06  THRMLTP =  0.00D+00
 THRCPQCI=  1.00D-10  KEXTA   =  0.00D+00  THRCOARS=  0.00D+00  SYMTOL  =  1.00D-06  GRADTOL =  1.00D-06  THROVL  =  1.00D-08
 THRORTH =  1.00D-08  GRID    =  1.00D-06  GRIDMAX =  1.00D-03  DTMAX   =  0.00D+00

 SETTING GEOMTYP        =    XYZ

 Variable memory set to 1000000000 words,  buffer space   230000 words

 SETTING BASIS          =    CC-PVDZ


 Recomputing integrals since basis changed


 Using spherical harmonics

 Library entry C      S cc-pVDZ              selected for orbital group  1
 Library entry C      P cc-pVDZ              selected for orbital group  1
 Library entry C      D cc-pVDZ              selected for orbital group  1
 Library entry O      S cc-pVDZ              selected for orbital group  2
 Library entry O      P cc-pVDZ              selected for orbital group  2
 Library entry O      D cc-pVDZ              selected for orbital group  2
 Library entry H      S cc-pVDZ              selected for orbital group  3
 Library entry H      P cc-pVDZ              selected for orbital group  3

1PROGRAM * SEWARD (Integral evaluation for generally contracted gaussian basis sets)     Author: Roland Lindh, 1990

 Geometry written to block  1 of record 700


 Point group  C1  



 ATOMIC COORDINATES

 NR  ATOM    CHARGE       X              Y              Z

   1  C       6.00    3.359272102    1.344483966   -0.089453873
   2  C       6.00    0.929136157   -0.112096048   -0.371346407
   3  C       6.00    0.850683188   -2.903558436    0.191750605
   4  O       8.00   -1.059887103    1.373961839    0.480783325
   5  O       8.00   -3.473250767    0.174091100   -0.227748937
   6  H       1.00    4.885404729    0.399047440   -1.155561938
   7  H       1.00    3.137600924    3.293084002   -0.806240115
   8  H       1.00    3.959043186    1.462339393    1.922940058
   9  H       1.00   -0.954425213   -3.747260325   -0.415735659
  10  H       1.00    2.422062742   -3.869130939   -0.788194639
  11  H       1.00    1.061315149   -3.249056099    2.257850790
  12  H       1.00   -3.757095356    1.040594063   -1.827369456

 Bond lengths in Bohr (Angstrom)

 1-2  2.847217844  1-6  2.087945742  1-7  2.088052377  1-8  2.103174883  2-3  2.848770854
     ( 1.506682792)     ( 1.104893301)     ( 1.104949729)     ( 1.112952215)     ( 1.507504610)

  2- 4  2.625015552   3- 9  2.083095959   3-10  2.088505839   3-11  2.105351381   4- 5  2.786760114
       ( 1.389098403)       ( 1.102326906)       ( 1.105189691)       ( 1.114103968)       ( 1.474689939)

  5-12  1.841244400
       ( 0.974344572)

 Bond angles

  1-2-3  120.34621508   1-2-4  108.96378016   2-1-6  109.97768473   2-1-7  110.65968807

  2- 1- 8  111.51839236   2- 3- 9  111.29042645   2- 3-10  109.85011216   2- 3-11  110.61128778

  2- 4- 5  109.26340262   3- 2- 4  118.01438870   4- 5-12   98.72910093   6- 1- 7  108.95849005

  6- 1- 8  107.78793601   7- 1- 8  107.84498117   9- 3-10  109.14141679   9- 3-11  107.84352464

 10- 3-11  108.01808069

 NUCLEAR CHARGE:                   41
 NUMBER OF PRIMITIVE AOS:         184
 NUMBER OF SYMMETRY AOS:          179
 NUMBER OF CONTRACTIONS:          105   ( 105A   )
 NUMBER OF CORE ORBITALS:           5   (   5A   )
 NUMBER OF VALENCE ORBITALS:       27   (  27A   )


 NUCLEAR REPULSION ENERGY  183.21355257


 Eigenvalues of metric

         1 0.346E-02 0.436E-02 0.105E-01 0.141E-01 0.182E-01 0.214E-01 0.331E-01 0.346E-01


 Contracted 2-electron integrals neglected if value below      1.0D-16
 AO integral compression algorithm  1   Integral accuracy      1.0D-16

     127.402 MB (compressed) written to integral file ( 93.4%)

     Node minimum: 35.127 MB, node maximum: 56.361 MB


 NUMBER OF SORTED TWO-ELECTRON INTEGRALS:    5164320.     BUFFER LENGTH:  32768
 NUMBER OF SEGMENTS:   1  SEGMENT LENGTH:    5164320      RECORD LENGTH: 524288

 Memory used in sort:       5.72 MW

 SORT1 READ    17075251. AND WROTE     5135897. INTEGRALS IN     15 RECORDS. CPU TIME:     0.36 SEC, REAL TIME:     0.41 SEC
 SORT2 READ    15396614. AND WROTE    15487395. INTEGRALS IN    411 RECORDS. CPU TIME:     0.13 SEC, REAL TIME:     0.16 SEC

 Node minimum:     5160610.  Node maximum:     5164320. integrals

 OPERATOR DM      FOR CENTER  0  COORDINATES:    0.000000    0.000000    0.000000


 **********************************************************************************************************************************
 DATASETS  * FILE   NREC   LENGTH (MB)   RECORD NAMES
              1      18        3.17       500      610      700      900      950      970     1000      129      960     1100   
                                          VAR    BASINP    GEOM    SYMINP    ZMAT    AOBASIS   BASIS     P2S    ABASIS      S 
                                         1400     1410     1200     1210     1080     1600     1650     1700   
                                           T        V       H0       H01     AOSYM     SMH    MOLCAS    OPER   

 PROGRAMS   *        TOTAL       INT
 CPU TIMES  *         1.83      1.73
 REAL TIME  *         2.12 SEC
 DISK USED  *       317.75 MB      
 GA USED    *         0.00 MB       (max)       0.00 MB       (current)
 **********************************************************************************************************************************

1PROGRAM * RHF-SCF (OPEN SHELL)       Authors: W. Meyer, H.-J. Werner


 NUMBER OF ELECTRONS:      21+   20-    SPACE SYMMETRY=1    SPIN SYMMETRY: Doublet 
 CONVERGENCE THRESHOLDS:    1.00E-10 (Density)    1.00E-11 (Energy)
 MAX. NUMBER OF ITERATIONS:      200
 INTERPOLATION TYPE:            DIIS
 INTERPOLATION STEPS:              2 (START)      1 (STEP)
 LEVEL SHIFTS:                 -0.30 (CLOSED)  0.00 (OPEN) 



 Orbital guess generated from atomic densities. Full valence occupancy:   32

 Molecular orbital dump at record        2100.2

 ITERATION    DDIFF          GRAD             ENERGY        2-EL.EN.            DIPOLE MOMENTS         DIIS
    1      0.000D+00      0.000D+00      -267.17823154    555.796074    0.56997    0.05101   -0.74932    0
    2      0.000D+00      0.617D-02      -267.24892410    555.721270    0.41351   -0.13011   -0.59839    1
    3      0.928D-02      0.214D-02      -267.26110963    555.638761    0.39329   -0.05824   -0.62591    2
    4      0.336D-02      0.912D-03      -267.26472591    555.791167    0.37863   -0.09842   -0.64231    3
    5      0.186D-02      0.364D-03      -267.26529725    555.762627    0.38116   -0.09197   -0.63532    4
    6      0.793D-03      0.110D-03      -267.26537426    555.748878    0.37941   -0.09177   -0.63807    5
    7      0.278D-03      0.513D-04      -267.26539460    555.745851    0.37869   -0.09152   -0.63757    6
    8      0.144D-03      0.274D-04      -267.26540072    555.743915    0.37896   -0.09163   -0.63779    7
    9      0.928D-04      0.115D-04      -267.26540164    555.744217    0.37914   -0.09159   -0.63755    8
   10      0.367D-04      0.503D-05      -267.26540180    555.744837    0.37940   -0.09160   -0.63761    9
   11      0.147D-04      0.197D-05      -267.26540183    555.744677    0.37945   -0.09160   -0.63762    9
   12      0.653D-05      0.672D-06      -267.26540183    555.744812    0.37947   -0.09160   -0.63761    9
   13      0.228D-05      0.227D-06      -267.26540183    555.744727    0.37947   -0.09160   -0.63761    9
   14      0.632D-06      0.759D-07      -267.26540183    555.744736    0.37947   -0.09160   -0.63761    9
   15      0.193D-06      0.301D-07      -267.26540183    555.744732    0.37947   -0.09160   -0.63761    9
   16      0.826D-07      0.146D-07      -267.26540183    555.744734    0.37947   -0.09160   -0.63761    9
   17      0.376D-07      0.753D-08      -267.26540183    555.744734    0.37947   -0.09160   -0.63761    9
   18      0.223D-07      0.342D-08      -267.26540183    555.744734    0.37947   -0.09160   -0.63761    9
   19      0.114D-07      0.134D-08      -267.26540183    555.744734    0.37947   -0.09160   -0.63761    9
   20      0.445D-08      0.570D-09      -267.26540183    555.744734    0.37947   -0.09160   -0.63761    9
   21      0.167D-08      0.288D-09      -267.26540183    555.744734    0.37947   -0.09160   -0.63761    9
   22      0.760D-09      0.162D-09      -267.26540183    555.744734    0.37947   -0.09160   -0.63761    9
   23      0.448D-09      0.800D-10      -267.26540183    555.744734    0.37947   -0.09160   -0.63761    9
   24      0.264D-09      0.319D-10      -267.26540183    555.744734    0.37947   -0.09160   -0.63761    9
   25      0.938D-10      0.130D-10      -267.26540183    555.744734    0.37947   -0.09160   -0.63761    0

 Final alpha occupancy:  21
 Final beta  occupancy:  20

 !RHF STATE 1.1 Energy               -267.265401830786
 Nuclear energy                       183.21355257
 One-electron energy                 -728.35132131
 Two-electron energy                  277.87236691
 Virial quotient                       -1.00155576
 !RHF STATE 1.1 Dipole moment           0.37947350    -0.09160281    -0.63760952
 Dipole moment /Debye                   0.96446226    -0.23281587    -1.62053561

 Orbital energies:

         1.1          2.1          3.1          4.1          5.1          6.1          7.1          8.1          9.1         10.1
    -20.630500   -20.628887   -11.279262   -11.237837   -11.232180    -1.470279    -1.240871    -1.023040    -0.945280    -0.768540

        11.1         12.1         13.1         14.1         15.1         16.1         17.1         18.1         19.1         20.1
     -0.704642    -0.642930    -0.626790    -0.588824    -0.545102    -0.543386    -0.539143    -0.516939    -0.493129    -0.469624

        21.1         22.1         23.1
     -0.352218     0.181286     0.183521


 **********************************************************************************************************************************
 DATASETS  * FILE   NREC   LENGTH (MB)   RECORD NAMES
              1      18        3.17       500      610      700      900      950      970     1000      129      960     1100   
                                          VAR    BASINP    GEOM    SYMINP    ZMAT    AOBASIS   BASIS     P2S    ABASIS      S 
                                         1400     1410     1200     1210     1080     1600     1650     1700   
                                           T        V       H0       H01     AOSYM     SMH    MOLCAS    OPER   

              2       3        0.77       700     1000     2100   
                                         GEOM     BASIS     RHF  

 PROGRAMS   *        TOTAL       RHF       INT
 CPU TIMES  *         3.80      1.97      1.73
 REAL TIME  *         4.27 SEC
 DISK USED  *       334.32 MB      
 SF USED    *         0.04 MB      
 GA USED    *         0.00 MB       (max)       0.00 MB       (current)
 **********************************************************************************************************************************


1PROGRAM * CCSD (Unrestricted open-shell coupled cluster)     Authors: C. Hampel, H.-J. Werner, 1991, M. Deegan, P.J. Knowles, 1992


 Convergence thresholds:  THRVAR = 1.00D-08  THRDEN = 1.00D-10

 CCSD(T)     terms to be evaluated (factor= 1.000)


 Number of core orbitals:           5 (   5 )
 Number of closed-shell orbitals:  15 (  15 )
 Number of active  orbitals:        1 (   1 )
 Number of external orbitals:      84 (  84 )

 Memory could be reduced to 24.91 Mwords without degradation in triples

 Number of N-1 electron functions:              31
 Number of N-2 electron functions:             465
 Number of singly external CSFs:              2635
 Number of doubly external CSFs:           2537250
 Total number of CSFs:                     2539885

 Molecular orbitals read from record     2100.2  Type=RHF/CANONICAL (state 1.1)

 Integral transformation finished. Total CPU:   1.59 sec, npass=  1  Memory used:  12.63 MW

 Starting RMP2 calculation

 ITER.      SQ.NORM     CORR.ENERGY   TOTAL ENERGY   ENERGY CHANGE        DEN1      VAR(S)    VAR(P)  DIIS     TIME
   1      1.24302398    -0.78636034  -268.05176217    -0.78636034    -0.00304961  0.20D-04  0.11D-02  1  1     2.09
   2      1.24566517    -0.78964913  -268.05505096    -0.00328879    -0.00000474  0.54D-06  0.19D-05  2  2     2.51
   3      1.24573071    -0.78969118  -268.05509302    -0.00004205    -0.00000003  0.16D-07  0.68D-08  3  3     2.97
   4      1.24573166    -0.78969119  -268.05509302    -0.00000000    -0.00000000  0.27D-09  0.38D-10  4  4     3.45
   5      1.24573174    -0.78969122  -268.05509305    -0.00000003    -0.00000000  0.25D-11  0.65D-12  5  5     3.96
   6      1.24573176    -0.78969123  -268.05509306    -0.00000001    -0.00000000  0.28D-13  0.86D-14  6  6     4.50
   7      1.24573176    -0.78969123  -268.05509306     0.00000000    -0.00000000  0.47D-15  0.12D-15  6  1     5.04
   8      1.24573176    -0.78969123  -268.05509306     0.00000000    -0.00000000  0.59D-17  0.13D-17  6  2     5.60

 Norm of t1 vector:      0.03892848      S-energy:    -0.00227115      T1 diagnostic:  0.00055014
 Norm of t2 vector:      0.49418249      P-energy:    -0.78742007
                                         Alpha-Beta:  -0.59340674
                                         Alpha-Alpha: -0.10093776
                                         Beta-Beta:   -0.09307557

 Spin contamination <S**2-Sz**2-Sz>     0.00104048
  Reference energy                   -267.265401830787
  RHF-RMP2 correlation energy          -0.789691225045
 !RHF-RMP2 energy                    -268.055093055833

 Starting UCCSD calculation

 ITER.      SQ.NORM     CORR.ENERGY   TOTAL ENERGY   ENERGY CHANGE        DEN1      VAR(S)    VAR(P)  DIIS     TIME
   1      1.26280258    -0.80903874  -268.07444057    -0.80903874    -0.02515476  0.38D-02  0.59D-02  1  1    15.19
   2      1.29157622    -0.83644736  -268.10184919    -0.02740861    -0.00201070  0.22D-03  0.66D-03  2  2    24.73
   3      1.30151667    -0.84094493  -268.10634676    -0.00449757    -0.00032464  0.19D-03  0.56D-04  3  3    34.14
   4      1.30643066    -0.84242192  -268.10782375    -0.00147699    -0.00007214  0.43D-04  0.14D-04  4  4    40.92
   5      1.30916294    -0.84281022  -268.10821205    -0.00038830    -0.00002370  0.19D-04  0.32D-05  5  5    47.76
   6      1.31110563    -0.84301495  -268.10841678    -0.00020473    -0.00000647  0.42D-05  0.12D-05  6  6    54.59
   7      1.31205753    -0.84307387  -268.10847570    -0.00005892    -0.00000209  0.14D-05  0.37D-06  6  2    61.43
   8      1.31250075    -0.84311665  -268.10851848    -0.00004277    -0.00000066  0.45D-06  0.11D-06  6  1    68.30
   9      1.31268706    -0.84312127  -268.10852310    -0.00000462    -0.00000022  0.15D-06  0.35D-07  6  4    75.12
  10      1.31275063    -0.84312421  -268.10852604    -0.00000294    -0.00000005  0.35D-07  0.96D-08  6  3    81.94
  11      1.31278033    -0.84312296  -268.10852479     0.00000125    -0.00000002  0.13D-07  0.28D-08  6  5    88.79
  12      1.31279079    -0.84312270  -268.10852453     0.00000026    -0.00000000  0.26D-08  0.96D-09  6  6    95.63
  13      1.31278964    -0.84312178  -268.10852361     0.00000092    -0.00000000  0.97D-09  0.29D-09  6  2   102.45
  14      1.31278442    -0.84312093  -268.10852277     0.00000085    -0.00000000  0.21D-09  0.68D-10  6  1   109.29
  15      1.31278033    -0.84312035  -268.10852218     0.00000059    -0.00000000  0.79D-10  0.19D-10  6  4   116.11
  16      1.31277714    -0.84311996  -268.10852179     0.00000038    -0.00000000  0.28D-10  0.63D-11  6  3   122.97
  17      1.31277493    -0.84311972  -268.10852155     0.00000024    -0.00000000  0.10D-10  0.24D-11  6  5   129.78
  18      1.31277402    -0.84311966  -268.10852149     0.00000006    -0.00000000  0.41D-11  0.88D-12  6  6   136.61
  19      1.31277341    -0.84311963  -268.10852146     0.00000003    -0.00000000  0.16D-11  0.37D-12  6  2   143.48
  20      1.31277309    -0.84311962  -268.10852145     0.00000001    -0.00000000  0.60D-12  0.13D-12  6  1   150.29
  21      1.31277292    -0.84311961  -268.10852144     0.00000001    -0.00000000  0.28D-12  0.58D-13  6  4   157.14
  22      1.31277280    -0.84311960  -268.10852143     0.00000001    -0.00000000  0.74D-13  0.22D-13  6  3   163.95
  23      1.31277274    -0.84311959  -268.10852143     0.00000000    -0.00000000  0.22D-13  0.63D-14  6  5   170.79
  24      1.31277273    -0.84311960  -268.10852143    -0.00000000    -0.00000000  0.68D-14  0.23D-14  6  6   177.62
  25      1.31277274    -0.84311960  -268.10852143    -0.00000000    -0.00000000  0.21D-14  0.53D-15  6  2   184.42
  26      1.31277275    -0.84311960  -268.10852143    -0.00000000    -0.00000000  0.77D-15  0.15D-15  6  1   191.22
  27      1.31277276    -0.84311960  -268.10852143    -0.00000000    -0.00000000  0.20D-15  0.63D-16  6  3   198.07
  28      1.31277276    -0.84311960  -268.10852143    -0.00000000    -0.00000000  0.30D-16  0.11D-16  6  4   205.63
  29      1.31277276    -0.84311960  -268.10852143    -0.00000000    -0.00000000  0.71D-17  0.29D-17  6  5   212.46
  30      1.31277276    -0.84311960  -268.10852143    -0.00000000    -0.00000000  0.15D-17  0.54D-18  6  6   219.29
  31      1.31277276    -0.84311960  -268.10852143    -0.00000000    -0.00000000  0.36D-18  0.11D-18  6  2   226.10

 Norm of t1 vector:      0.13874367      S-energy:    -0.00282089      T1 diagnostic:  0.01617198
                                                                       D1 diagnostic:  0.06281058
 Norm of t2 vector:      0.54177759      P-energy:    -0.84029871
                                         Alpha-Beta:  -0.66485876
                                         Alpha-Alpha: -0.09147224
                                         Beta-Beta:   -0.08396771

 Spin contamination <S**2-Sz**2-Sz>     0.00217656

 Memory could be reduced to 28.85 Mwords without degradation in triples
 

 RESULTS
 =======

  Reference energy                   -267.265401830787
  UCCSD singles energy                 -0.002820885749
  UCCSD pair energy                    -0.840298713027
  UCCSD correlation energy             -0.843119598776
  Triples (T) contribution             -0.024975378601
  Total correlation energy             -0.868094977376
 
  RHF-UCCSD energy                   -268.108521429563
  RHF-UCCSD[T] energy                -268.134832406621
  RHF-UCCSD-T energy                 -268.133075532982
 !RHF-UCCSD(T) energy                -268.133496808163

 Program statistics:

 Available memory in ccsd:               999997692
 Min. memory needed in ccsd:               7337057
 Max. memory used in ccsd:                10523002
 Max. memory used in cckext:              10867977 (31 integral passes)
 Max. memory used in cckint:              12633073 ( 1 integral passes)



 **********************************************************************************************************************************
 DATASETS  * FILE   NREC   LENGTH (MB)   RECORD NAMES
              1      18        3.17       500      610      700      900      950      970     1000      129      960     1100   
                                          VAR    BASINP    GEOM    SYMINP    ZMAT    AOBASIS   BASIS     P2S    ABASIS      S 
                                         1400     1410     1200     1210     1080     1600     1650     1700   
                                           T        V       H0       H01     AOSYM     SMH    MOLCAS    OPER   

              2       3        0.77       700     1000     2100   
                                         GEOM     BASIS     RHF  

 PROGRAMS   *        TOTAL  UCCSD(T)       RHF       INT
 CPU TIMES  *       291.37    287.57      1.97      1.73
 REAL TIME  *       303.19 SEC
 DISK USED  *         1.30 GB      
 SF USED    *       553.73 MB      
 GA USED    *         0.00 MB       (max)       0.00 MB       (current)
 **********************************************************************************************************************************

        UCCSD(T)        RHF-SCF 
   -268.13349681   -267.26540183
 **********************************************************************************************************************************
 Variable memory released
