
 Primary working directories    : /tmp/320938.872.gen6.q
 Secondary working directories  : /tmp/320938.872.gen6.q
 Wavefunction directory         : /home/vulcan/mel64643/wfu/
 Main file repository           : /tmp/320938.872.gen6.q/

 ARCHNAME  : Linux/x86_64
 FC        : /opt/intel/compilers_and_libraries_2016.1.150/linux/bin/intel64/ifort
 FCVERSION : 16.0.1
 BLASLIB   : -mkl
 id        : ccgc

 Nodes     nprocs
 n078         3
 Number of processes for MPI-2 version of Molpro:   nprocs(total)=    4   nprocs(compute)=    3   nprocs(helper)=    1
 ga_uses_ma=false, calling ma_init with nominal heap.
 GA-space will be limited to   8.0 MW (determined by -G option)

 Using customized tuning parameters: mindgm=10; mindgv=16; mindgc=4; mindgr=1; noblas=0; mincuda=1000; minvec=7
 default implementation of scratch files=sf  

 ***,Frequencies for min3
 memory,1000,m
 gthresh,energy=1.0d-10,orbital=1.0d-10,oneint=1.0d-16,twoint=1.0d-16,optgrad=1.0d-6,compress=1.0d-13
 geomtyp=xyz
 
  geometry = {
  12
  arbitrary comment
     C    1.776964391707    0.711398808326   -0.047331391796
     C    0.491811976407   -0.059992870174   -0.196493901896
     C    0.450332819107   -1.536294019674    0.101417522804
     O   -0.560767745493    0.726744417969    0.254406953019
     O   -1.837847230631    0.092566082076   -0.120516324204
     H    2.585361774863    0.211937137012   -0.611422704874
     H    1.660336258176    1.743331452254   -0.426678706839
     H    2.095077844459    0.774665896901    1.017607627571
     H   -0.504771963009   -1.982421556259   -0.219845307257
     H    1.281997228654   -2.046779617107   -0.416906564545
     H    0.560689428280   -1.717563994779    1.193961607814
     H   -1.986897533725    0.549989278598   -0.966032461962
  }
 
 basis=cc-pvdz
 {rhf;maxit,200}
 {uccsd(t);maxit,200}

 Variables initialized (661), CPU time= 0.00 sec
 Commands  initialized (458), CPU time= 0.00 sec, 486 directives.
 Default parameters read. Elapsed time= 0.05 sec

 Checking input...
 Passed
1


                                         ***  PROGRAM SYSTEM MOLPRO  ***
                         Copyright, University College Cardiff Consultants Limited, 2008

                                    Version 2010.1 linked May 16 2016 07:17:05


 **********************************************************************************************************************************
 LABEL *   Frequencies for min3                                                          
 Linux-4.4.3/n078(x86_64) 64 bit mpp version                                             DATE: 07-Mar-20          TIME: 06:06:35  
 **********************************************************************************************************************************

 SHA1:             9e8077add272b0f3cad6f7df79ec5211205f459d
 **********************************************************************************************************************************

 THRESHOLDS:

 ZERO    =  1.00D-12  ONEINT  =  1.00D-16  TWOINT  =  1.00D-16  PREFAC  =  1.00D-14  LOCALI  =  1.00D-09  EORDER  =  1.00D-04
 ENERGY  =  1.00D-10  ETEST   =  0.00D+00  EDENS   =  0.00D+00  THRDEDEF=  1.00D-06  GRADIENT=  1.00D-02  STEP    =  1.00D-03
 ORBITAL =  1.00D-10  CIVEC   =  1.00D-05  COEFF   =  1.00D-04  PRINTCI =  5.00D-02  PUNCHCI =  9.90D+01  OPTGRAD =  1.00D-06
 OPTENERG=  1.00D-06  OPTSTEP =  3.00D-04  THRGRAD =  1.00D-10  COMPRESS=  1.00D-13  VARMIN  =  1.00D-07  VARMAX  =  1.00D-03
 THRDOUB =  0.00D+00  THRDIV  =  1.00D-05  THRRED  =  1.00D-07  THRPSP  =  1.00D+00  THRDC   =  1.00D-10  THRCS   =  1.00D-10
 THRNRM  =  1.00D-08  THREQ   =  0.00D+00  THRDE   =  1.00D+00  THRREF  =  1.00D-05  SPARFAC =  1.00D+00  THRDLP  =  1.00D-07
 THRDIA  =  1.00D-10  THRDLS  =  1.00D-07  THRGPS  =  0.00D+00  THRKEX  =  0.00D+00  THRDIS  =  2.00D-01  THRVAR  =  1.00D-10
 THRLOC  =  1.00D-06  THRGAP  =  1.00D-06  THRLOCT = -1.00D+00  THRGAPT = -1.00D+00  THRORB  =  1.00D-06  THRMLTP =  0.00D+00
 THRCPQCI=  1.00D-10  KEXTA   =  0.00D+00  THRCOARS=  0.00D+00  SYMTOL  =  1.00D-06  GRADTOL =  1.00D-06  THROVL  =  1.00D-08
 THRORTH =  1.00D-08  GRID    =  1.00D-06  GRIDMAX =  1.00D-03  DTMAX   =  0.00D+00

 SETTING GEOMTYP        =    XYZ

 Variable memory set to 1000000000 words,  buffer space   230000 words

 SETTING BASIS          =    CC-PVDZ


 Recomputing integrals since basis changed


 Using spherical harmonics

 Library entry C      S cc-pVDZ              selected for orbital group  1
 Library entry C      P cc-pVDZ              selected for orbital group  1
 Library entry C      D cc-pVDZ              selected for orbital group  1
 Library entry O      S cc-pVDZ              selected for orbital group  2
 Library entry O      P cc-pVDZ              selected for orbital group  2
 Library entry O      D cc-pVDZ              selected for orbital group  2
 Library entry H      S cc-pVDZ              selected for orbital group  3
 Library entry H      P cc-pVDZ              selected for orbital group  3

1PROGRAM * SEWARD (Integral evaluation for generally contracted gaussian basis sets)     Author: Roland Lindh, 1990

 Geometry written to block  1 of record 700


 Point group  C1  



 ATOMIC COORDINATES

 NR  ATOM    CHARGE       X              Y              Z

   1  C       6.00    3.357976046    1.344348918   -0.089443368
   2  C       6.00    0.929389944   -0.113370094   -0.371319661
   3  C       6.00    0.851005696   -2.903174955    0.191651343
   4  O       8.00   -1.059697462    1.373347918    0.480759467
   5  O       8.00   -3.473027937    0.174924544   -0.227742847
   6  H       1.00    4.885625705    0.400503146   -1.155421463
   7  H       1.00    3.137580814    3.294419001   -0.806305902
   8  H       1.00    3.959123350    1.463906388    1.922999725
   9  H       1.00   -0.953880769   -3.746233818   -0.415447422
  10  H       1.00    2.422623663   -3.867852928   -0.787839229
  11  H       1.00    1.059549464   -3.245725563    2.256260450
  12  H       1.00   -3.754692190    1.039329112   -1.825536787

 Bond lengths in Bohr (Angstrom)

 1-2  2.846476668  1-6  2.088269049  1-7  2.089315505  1-8  2.103710834  2-3  2.847119878
     ( 1.506290578)     ( 1.105064387)     ( 1.105618148)     ( 1.113235828)     ( 1.506630951)

  2- 4  2.625421489   3- 9  2.082530266   3-10  2.088058526   3-11  2.103198086   4- 5  2.786100876
       ( 1.389313216)       ( 1.102027554)       ( 1.104952983)       ( 1.112964493)       ( 1.474341086)

  5-12  1.838334976
       ( 0.972804972)

 Bond angles

  1-2-3  120.37866573   1-2-4  108.92084440   2-1-6  110.00670441   2-1-7  110.73252341

  2- 1- 8  111.57004715   2- 3- 9  111.27792374   2- 3-10  109.82937456   2- 3-11  110.54654859

  2- 4- 5  109.27757305   3- 2- 4  118.02427572   4- 5-12   98.71291660   6- 1- 7  108.89755031

  6- 1- 8  107.75572290   7- 1- 8  107.77757885   9- 3-10  109.18054635   9- 3-11  107.82874087

 10- 3-11  108.09582974

 NUCLEAR CHARGE:                   41
 NUMBER OF PRIMITIVE AOS:         184
 NUMBER OF SYMMETRY AOS:          179
 NUMBER OF CONTRACTIONS:          105   ( 105A   )
 NUMBER OF CORE ORBITALS:           5   (   5A   )
 NUMBER OF VALENCE ORBITALS:       27   (  27A   )


 NUCLEAR REPULSION ENERGY  183.25266254


 Eigenvalues of metric

         1 0.345E-02 0.435E-02 0.105E-01 0.141E-01 0.182E-01 0.214E-01 0.331E-01 0.345E-01


 Contracted 2-electron integrals neglected if value below      1.0D-16
 AO integral compression algorithm  1   Integral accuracy      1.0D-16

     127.402 MB (compressed) written to integral file ( 93.4%)

     Node minimum: 40.632 MB, node maximum: 43.516 MB


 NUMBER OF SORTED TWO-ELECTRON INTEGRALS:    5164320.     BUFFER LENGTH:  32768
 NUMBER OF SEGMENTS:   1  SEGMENT LENGTH:    5164320      RECORD LENGTH: 524288

 Memory used in sort:       5.72 MW

 SORT1 READ    17075494. AND WROTE     5135951. INTEGRALS IN     15 RECORDS. CPU TIME:     0.19 SEC, REAL TIME:     0.23 SEC
 SORT2 READ    15396751. AND WROTE    15487395. INTEGRALS IN    465 RECORDS. CPU TIME:     0.06 SEC, REAL TIME:     0.09 SEC

 Node minimum:     5160610.  Node maximum:     5164320. integrals

 OPERATOR DM      FOR CENTER  0  COORDINATES:    0.000000    0.000000    0.000000


 **********************************************************************************************************************************
 DATASETS  * FILE   NREC   LENGTH (MB)   RECORD NAMES
              1      18        3.17       500      610      700      900      950      970     1000      129      960     1100   
                                          VAR    BASINP    GEOM    SYMINP    ZMAT    AOBASIS   BASIS     P2S    ABASIS      S 
                                         1400     1410     1200     1210     1080     1600     1650     1700   
                                           T        V       H0       H01     AOSYM     SMH    MOLCAS    OPER   

 PROGRAMS   *        TOTAL       INT
 CPU TIMES  *         0.81      0.77
 REAL TIME  *         1.20 SEC
 DISK USED  *       305.79 MB      
 GA USED    *         0.00 MB       (max)       0.00 MB       (current)
 **********************************************************************************************************************************

1PROGRAM * RHF-SCF (OPEN SHELL)       Authors: W. Meyer, H.-J. Werner


 NUMBER OF ELECTRONS:      21+   20-    SPACE SYMMETRY=1    SPIN SYMMETRY: Doublet 
 CONVERGENCE THRESHOLDS:    1.00E-10 (Density)    1.00E-11 (Energy)
 MAX. NUMBER OF ITERATIONS:      200
 INTERPOLATION TYPE:            DIIS
 INTERPOLATION STEPS:              2 (START)      1 (STEP)
 LEVEL SHIFTS:                 -0.30 (CLOSED)  0.00 (OPEN) 



 Orbital guess generated from atomic densities. Full valence occupancy:   32

 Molecular orbital dump at record        2100.2

 ITERATION    DDIFF          GRAD             ENERGY        2-EL.EN.            DIPOLE MOMENTS         DIIS
    1      0.000D+00      0.000D+00      -267.17837512    555.869059    0.57159    0.04978   -0.74819    0
    2      0.000D+00      0.617D-02      -267.24906365    555.793586    0.41516   -0.13142   -0.59780    1
    3      0.928D-02      0.214D-02      -267.26123925    555.710763    0.39465   -0.05960   -0.62512    2
    4      0.336D-02      0.912D-03      -267.26484904    555.863523    0.37990   -0.09979   -0.64160    3
    5      0.186D-02      0.363D-03      -267.26541841    555.834913    0.38234   -0.09336   -0.63460    4
    6      0.792D-03      0.110D-03      -267.26549494    555.821178    0.38055   -0.09318   -0.63735    5
    7      0.277D-03      0.511D-04      -267.26551512    555.818179    0.37981   -0.09293   -0.63685    6
    8      0.144D-03      0.273D-04      -267.26552118    555.816235    0.38006   -0.09305   -0.63706    7
    9      0.925D-04      0.115D-04      -267.26552210    555.816547    0.38024   -0.09301   -0.63682    8
   10      0.366D-04      0.501D-05      -267.26552225    555.817157    0.38050   -0.09302   -0.63689    9
   11      0.146D-04      0.196D-05      -267.26552228    555.816999    0.38055   -0.09301   -0.63689    9
   12      0.650D-05      0.669D-06      -267.26552228    555.817133    0.38057   -0.09301   -0.63689    9
   13      0.227D-05      0.226D-06      -267.26552228    555.817049    0.38058   -0.09301   -0.63689    9
   14      0.631D-06      0.755D-07      -267.26552228    555.817058    0.38058   -0.09302   -0.63689    9
   15      0.192D-06      0.298D-07      -267.26552228    555.817054    0.38058   -0.09302   -0.63689    9
   16      0.820D-07      0.144D-07      -267.26552228    555.817055    0.38058   -0.09302   -0.63689    9
   17      0.370D-07      0.742D-08      -267.26552228    555.817055    0.38058   -0.09302   -0.63689    9
   18      0.219D-07      0.339D-08      -267.26552228    555.817055    0.38058   -0.09302   -0.63689    9
   19      0.113D-07      0.133D-08      -267.26552228    555.817055    0.38058   -0.09302   -0.63689    9
   20      0.442D-08      0.563D-09      -267.26552228    555.817055    0.38058   -0.09302   -0.63689    9
   21      0.165D-08      0.284D-09      -267.26552228    555.817055    0.38058   -0.09302   -0.63689    9
   22      0.748D-09      0.160D-09      -267.26552228    555.817055    0.38058   -0.09302   -0.63689    9
   23      0.441D-09      0.789D-10      -267.26552228    555.817055    0.38058   -0.09302   -0.63689    9
   24      0.261D-09      0.314D-10      -267.26552228    555.817055    0.38058   -0.09302   -0.63689    9
   25      0.925D-10      0.128D-10      -267.26552228    555.817055    0.38058   -0.09302   -0.63689    0

 Final alpha occupancy:  21
 Final beta  occupancy:  20

 !RHF STATE 1.1 Energy               -267.265522282019
 Nuclear energy                       183.25266254
 One-electron energy                 -728.42671243
 Two-electron energy                  277.90852761
 Virial quotient                       -1.00153313
 !RHF STATE 1.1 Dipole moment           0.38057884    -0.09301659    -0.63688600
 Dipole moment /Debye                   0.96727158    -0.23640912    -1.61869672

 Orbital energies:

         1.1          2.1          3.1          4.1          5.1          6.1          7.1          8.1          9.1         10.1
    -20.630454   -20.628705   -11.279206   -11.237906   -11.232012    -1.470531    -1.241055    -1.023273    -0.945431    -0.768645

        11.1         12.1         13.1         14.1         15.1         16.1         17.1         18.1         19.1         20.1
     -0.704916    -0.643082    -0.626909    -0.588907    -0.545263    -0.543422    -0.539183    -0.516958    -0.493094    -0.469769

        21.1         22.1         23.1
     -0.352214     0.181400     0.183680


 **********************************************************************************************************************************
 DATASETS  * FILE   NREC   LENGTH (MB)   RECORD NAMES
              1      18        3.17       500      610      700      900      950      970     1000      129      960     1100   
                                          VAR    BASINP    GEOM    SYMINP    ZMAT    AOBASIS   BASIS     P2S    ABASIS      S 
                                         1400     1410     1200     1210     1080     1600     1650     1700   
                                           T        V       H0       H01     AOSYM     SMH    MOLCAS    OPER   

              2       3        0.77       700     1000     2100   
                                         GEOM     BASIS     RHF  

 PROGRAMS   *        TOTAL       RHF       INT
 CPU TIMES  *         1.69      0.88      0.77
 REAL TIME  *         2.21 SEC
 DISK USED  *       322.36 MB      
 SF USED    *         0.04 MB      
 GA USED    *         0.00 MB       (max)       0.00 MB       (current)
 **********************************************************************************************************************************


1PROGRAM * CCSD (Unrestricted open-shell coupled cluster)     Authors: C. Hampel, H.-J. Werner, 1991, M. Deegan, P.J. Knowles, 1992


 Convergence thresholds:  THRVAR = 1.00D-08  THRDEN = 1.00D-10

 CCSD(T)     terms to be evaluated (factor= 1.000)


 Number of core orbitals:           5 (   5 )
 Number of closed-shell orbitals:  15 (  15 )
 Number of active  orbitals:        1 (   1 )
 Number of external orbitals:      84 (  84 )

 Memory could be reduced to 24.91 Mwords without degradation in triples

 Number of N-1 electron functions:              31
 Number of N-2 electron functions:             465
 Number of singly external CSFs:              2635
 Number of doubly external CSFs:           2537250
 Total number of CSFs:                     2539885

 Molecular orbitals read from record     2100.2  Type=RHF/CANONICAL (state 1.1)

 Integral transformation finished. Total CPU:   0.92 sec, npass=  1  Memory used:  12.63 MW

 Starting RMP2 calculation

 ITER.      SQ.NORM     CORR.ENERGY   TOTAL ENERGY   ENERGY CHANGE        DEN1      VAR(S)    VAR(P)  DIIS     TIME
   1      1.24292310    -0.78625897  -268.05178125    -0.78625897    -0.00304761  0.20D-04  0.11D-02  1  1     1.24
   2      1.24556171    -0.78954554  -268.05506782    -0.00328657    -0.00000474  0.54D-06  0.19D-05  2  2     1.52
   3      1.24562716    -0.78958755  -268.05510984    -0.00004201    -0.00000003  0.16D-07  0.67D-08  3  3     1.81
   4      1.24562811    -0.78958756  -268.05510984    -0.00000000    -0.00000000  0.27D-09  0.38D-10  4  4     2.13
   5      1.24562820    -0.78958759  -268.05510987    -0.00000003    -0.00000000  0.25D-11  0.65D-12  5  5     2.46
   6      1.24562821    -0.78958760  -268.05510988    -0.00000001    -0.00000000  0.28D-13  0.86D-14  6  6     2.82
   7      1.24562821    -0.78958760  -268.05510988     0.00000000    -0.00000000  0.47D-15  0.12D-15  6  1     3.19
   8      1.24562821    -0.78958760  -268.05510988     0.00000000    -0.00000000  0.59D-17  0.13D-17  6  2     3.55

 Norm of t1 vector:      0.03892814      S-energy:    -0.00227153      T1 diagnostic:  0.00055001
 Norm of t2 vector:      0.49407773      P-energy:    -0.78731607
                                         Alpha-Beta:  -0.59331549
                                         Alpha-Alpha: -0.10093109
                                         Beta-Beta:   -0.09306948

 Spin contamination <S**2-Sz**2-Sz>     0.00104039
  Reference energy                   -267.265522282019
  RHF-RMP2 correlation energy          -0.789587595012
 !RHF-RMP2 energy                    -268.055109877031

 Starting UCCSD calculation

 ITER.      SQ.NORM     CORR.ENERGY   TOTAL ENERGY   ENERGY CHANGE        DEN1      VAR(S)    VAR(P)  DIIS     TIME
   1      1.26270328    -0.80895429  -268.07447657    -0.80895429    -0.02514018  0.37D-02  0.59D-02  1  1     9.80
   2      1.29145115    -0.83634790  -268.10187019    -0.02739361    -0.00200811  0.22D-03  0.65D-03  2  2    16.01
   3      1.30137697    -0.84083992  -268.10636220    -0.00449202    -0.00032420  0.19D-03  0.56D-04  3  3    22.25
   4      1.30628222    -0.84231482  -268.10783710    -0.00147489    -0.00007202  0.43D-04  0.14D-04  4  4    28.50
   5      1.30901003    -0.84270265  -268.10822493    -0.00038784    -0.00002364  0.19D-04  0.32D-05  5  5    34.75
   6      1.31094780    -0.84290698  -268.10842926    -0.00020433    -0.00000645  0.42D-05  0.12D-05  6  6    39.49
   7      1.31189597    -0.84296572  -268.10848800    -0.00005874    -0.00000207  0.14D-05  0.37D-06  6  2    44.24
   8      1.31233649    -0.84300831  -268.10853059    -0.00004259    -0.00000065  0.45D-06  0.11D-06  6  1    48.98
   9      1.31252117    -0.84301287  -268.10853515    -0.00000456    -0.00000022  0.15D-06  0.35D-07  6  4    53.74
  10      1.31258403    -0.84301577  -268.10853805    -0.00000290    -0.00000005  0.34D-07  0.95D-08  6  3    58.51
  11      1.31261345    -0.84301453  -268.10853681     0.00000125    -0.00000002  0.13D-07  0.28D-08  6  5    63.28
  12      1.31262380    -0.84301427  -268.10853655     0.00000026    -0.00000000  0.26D-08  0.95D-09  6  6    68.07
  13      1.31262265    -0.84301336  -268.10853564     0.00000091    -0.00000000  0.96D-09  0.28D-09  6  2    72.88
  14      1.31261744    -0.84301251  -268.10853479     0.00000084    -0.00000000  0.21D-09  0.67D-10  6  1    78.86
  15      1.31261338    -0.84301193  -268.10853421     0.00000059    -0.00000000  0.78D-10  0.19D-10  6  4    85.16
  16      1.31261020    -0.84301154  -268.10853383     0.00000038    -0.00000000  0.28D-10  0.62D-11  6  3    91.45
  17      1.31260800    -0.84301131  -268.10853359     0.00000024    -0.00000000  0.10D-10  0.23D-11  6  5    97.76
  18      1.31260710    -0.84301125  -268.10853353     0.00000006    -0.00000000  0.40D-11  0.86D-12  6  6   104.06
  19      1.31260650    -0.84301121  -268.10853349     0.00000003    -0.00000000  0.16D-11  0.37D-12  6  2   110.38
  20      1.31260618    -0.84301120  -268.10853348     0.00000001    -0.00000000  0.59D-12  0.13D-12  6  1   116.73
  21      1.31260602    -0.84301119  -268.10853347     0.00000001    -0.00000000  0.28D-12  0.57D-13  6  4   123.02
  22      1.31260590    -0.84301118  -268.10853346     0.00000001    -0.00000000  0.73D-13  0.21D-13  6  3   129.33
  23      1.31260584    -0.84301118  -268.10853346     0.00000000    -0.00000000  0.21D-13  0.62D-14  6  5   135.25
  24      1.31260583    -0.84301118  -268.10853346    -0.00000000    -0.00000000  0.67D-14  0.22D-14  6  6   140.44
  25      1.31260584    -0.84301118  -268.10853346    -0.00000000    -0.00000000  0.21D-14  0.52D-15  6  2   146.72
  26      1.31260585    -0.84301118  -268.10853346    -0.00000000    -0.00000000  0.76D-15  0.15D-15  6  1   153.04
  27      1.31260585    -0.84301118  -268.10853346    -0.00000000    -0.00000000  0.19D-15  0.62D-16  6  3   159.36
  28      1.31260586    -0.84301118  -268.10853346    -0.00000000    -0.00000000  0.29D-16  0.11D-16  6  4   165.67
  29      1.31260586    -0.84301118  -268.10853347    -0.00000000    -0.00000000  0.69D-17  0.29D-17  6  5   171.97
  30      1.31260586    -0.84301118  -268.10853347    -0.00000000    -0.00000000  0.15D-17  0.53D-18  6  6   178.26
  31      1.31260586    -0.84301118  -268.10853347    -0.00000000    -0.00000000  0.35D-18  0.10D-18  6  2   184.56

 Norm of t1 vector:      0.13864883      S-energy:    -0.00282085      T1 diagnostic:  0.01616058
                                                                       D1 diagnostic:  0.06279857
 Norm of t2 vector:      0.54164782      P-energy:    -0.84019033
                                         Alpha-Beta:  -0.66474526
                                         Alpha-Alpha: -0.09147428
                                         Beta-Beta:   -0.08397079

 Spin contamination <S**2-Sz**2-Sz>     0.00217036

 Memory could be reduced to 28.85 Mwords without degradation in triples
 

 RESULTS
 =======

  Reference energy                   -267.265522282019
  UCCSD singles energy                 -0.002820853493
  UCCSD pair energy                    -0.840190329774
  UCCSD correlation energy             -0.843011183267
  Triples (T) contribution             -0.024960868352
  Total correlation energy             -0.867972051619
 
  RHF-UCCSD energy                   -268.108533465286
  RHF-UCCSD[T] energy                -268.134828567564
  RHF-UCCSD-T energy                 -268.133073388359
 !RHF-UCCSD(T) energy                -268.133494333638

 Program statistics:

 Available memory in ccsd:               999997692
 Min. memory needed in ccsd:               7337057
 Max. memory used in ccsd:                10523002
 Max. memory used in cckext:              10867977 (31 integral passes)
 Max. memory used in cckint:              12633073 ( 1 integral passes)



 **********************************************************************************************************************************
 DATASETS  * FILE   NREC   LENGTH (MB)   RECORD NAMES
              1      18        3.17       500      610      700      900      950      970     1000      129      960     1100   
                                          VAR    BASINP    GEOM    SYMINP    ZMAT    AOBASIS   BASIS     P2S    ABASIS      S 
                                         1400     1410     1200     1210     1080     1600     1650     1700   
                                           T        V       H0       H01     AOSYM     SMH    MOLCAS    OPER   

              2       3        0.77       700     1000     2100   
                                         GEOM     BASIS     RHF  

 PROGRAMS   *        TOTAL  UCCSD(T)       RHF       INT
 CPU TIMES  *       231.05    229.36      0.88      0.77
 REAL TIME  *       242.31 SEC
 DISK USED  *         1.29 GB      
 SF USED    *       553.73 MB      
 GA USED    *         0.00 MB       (max)       0.00 MB       (current)
 **********************************************************************************************************************************

        UCCSD(T)        RHF-SCF 
   -268.13349433   -267.26552228
 **********************************************************************************************************************************
 Variable memory released
