
 Primary working directories    : /tmp/320938.873.gen6.q
 Secondary working directories  : /tmp/320938.873.gen6.q
 Wavefunction directory         : /home/vulcan/mel64643/wfu/
 Main file repository           : /tmp/320938.873.gen6.q/

 ARCHNAME  : Linux/x86_64
 FC        : /opt/intel/compilers_and_libraries_2016.1.150/linux/bin/intel64/ifort
 FCVERSION : 16.0.1
 BLASLIB   : -mkl
 id        : ccgc

 Nodes     nprocs
 n083         3
 Number of processes for MPI-2 version of Molpro:   nprocs(total)=    4   nprocs(compute)=    3   nprocs(helper)=    1
 ga_uses_ma=false, calling ma_init with nominal heap.
 GA-space will be limited to   8.0 MW (determined by -G option)

 Using customized tuning parameters: mindgm=10; mindgv=16; mindgc=4; mindgr=1; noblas=0; mincuda=1000; minvec=7
 default implementation of scratch files=sf  

 ***,Frequencies for min3
 memory,1000,m
 gthresh,energy=1.0d-10,orbital=1.0d-10,oneint=1.0d-16,twoint=1.0d-16,optgrad=1.0d-6,compress=1.0d-13
 geomtyp=xyz
 
  geometry = {
  12
  arbitrary comment
     C    1.776964391707    0.711398808326   -0.047841264117
     C    0.491851038607   -0.059957565567   -0.196226120821
     C    0.450320560748   -1.536305384832    0.101446886164
     O   -0.560818098403    0.727195755748    0.254643069170
     O   -1.837816411652    0.092283439514   -0.120686384960
     H    2.585490536132    0.211574125987   -0.610729795284
     H    1.660502510806    1.742963741284   -0.425759333325
     H    2.094926794706    0.773900078783    1.017159545119
     H   -0.504457209749   -1.982743621855   -0.221050233137
     H    1.282556049081   -2.046268632944   -0.416171010548
     H    0.560491947189   -1.720447248489    1.195308622976
     H   -1.987726721537    0.551217795415   -0.966589738444
  }
 
 basis=cc-pvdz
 {rhf;maxit,200}
 {uccsd(t);maxit,200}

 Variables initialized (661), CPU time= 0.00 sec
 Commands  initialized (458), CPU time= 0.01 sec, 486 directives.
 Default parameters read. Elapsed time= 0.06 sec

 Checking input...
 Passed
1


                                         ***  PROGRAM SYSTEM MOLPRO  ***
                         Copyright, University College Cardiff Consultants Limited, 2008

                                    Version 2010.1 linked May 16 2016 07:17:05


 **********************************************************************************************************************************
 LABEL *   Frequencies for min3                                                          
 Linux-4.4.3/n083(x86_64) 64 bit mpp version                                             DATE: 07-Mar-20          TIME: 06:07:19  
 **********************************************************************************************************************************

 SHA1:             9e8077add272b0f3cad6f7df79ec5211205f459d
 **********************************************************************************************************************************

 THRESHOLDS:

 ZERO    =  1.00D-12  ONEINT  =  1.00D-16  TWOINT  =  1.00D-16  PREFAC  =  1.00D-14  LOCALI  =  1.00D-09  EORDER  =  1.00D-04
 ENERGY  =  1.00D-10  ETEST   =  0.00D+00  EDENS   =  0.00D+00  THRDEDEF=  1.00D-06  GRADIENT=  1.00D-02  STEP    =  1.00D-03
 ORBITAL =  1.00D-10  CIVEC   =  1.00D-05  COEFF   =  1.00D-04  PRINTCI =  5.00D-02  PUNCHCI =  9.90D+01  OPTGRAD =  1.00D-06
 OPTENERG=  1.00D-06  OPTSTEP =  3.00D-04  THRGRAD =  1.00D-10  COMPRESS=  1.00D-13  VARMIN  =  1.00D-07  VARMAX  =  1.00D-03
 THRDOUB =  0.00D+00  THRDIV  =  1.00D-05  THRRED  =  1.00D-07  THRPSP  =  1.00D+00  THRDC   =  1.00D-10  THRCS   =  1.00D-10
 THRNRM  =  1.00D-08  THREQ   =  0.00D+00  THRDE   =  1.00D+00  THRREF  =  1.00D-05  SPARFAC =  1.00D+00  THRDLP  =  1.00D-07
 THRDIA  =  1.00D-10  THRDLS  =  1.00D-07  THRGPS  =  0.00D+00  THRKEX  =  0.00D+00  THRDIS  =  2.00D-01  THRVAR  =  1.00D-10
 THRLOC  =  1.00D-06  THRGAP  =  1.00D-06  THRLOCT = -1.00D+00  THRGAPT = -1.00D+00  THRORB  =  1.00D-06  THRMLTP =  0.00D+00
 THRCPQCI=  1.00D-10  KEXTA   =  0.00D+00  THRCOARS=  0.00D+00  SYMTOL  =  1.00D-06  GRADTOL =  1.00D-06  THROVL  =  1.00D-08
 THRORTH =  1.00D-08  GRID    =  1.00D-06  GRIDMAX =  1.00D-03  DTMAX   =  0.00D+00

 SETTING GEOMTYP        =    XYZ

 Variable memory set to 1000000000 words,  buffer space   230000 words

 SETTING BASIS          =    CC-PVDZ


 Recomputing integrals since basis changed


 Using spherical harmonics

 Library entry C      S cc-pVDZ              selected for orbital group  1
 Library entry C      P cc-pVDZ              selected for orbital group  1
 Library entry C      D cc-pVDZ              selected for orbital group  1
 Library entry O      S cc-pVDZ              selected for orbital group  2
 Library entry O      P cc-pVDZ              selected for orbital group  2
 Library entry O      D cc-pVDZ              selected for orbital group  2
 Library entry H      S cc-pVDZ              selected for orbital group  3
 Library entry H      P cc-pVDZ              selected for orbital group  3

1PROGRAM * SEWARD (Integral evaluation for generally contracted gaussian basis sets)     Author: Roland Lindh, 1990

 Geometry written to block  1 of record 700


 Point group  C1  



 ATOMIC COORDINATES

 NR  ATOM    CHARGE       X              Y              Z

   1  C       6.00    3.357976046    1.344348918   -0.090406887
   2  C       6.00    0.929463760   -0.113303378   -0.370813628
   3  C       6.00    0.850982531   -2.903196432    0.191706832
   4  O       8.00   -1.059792616    1.374200822    0.481205662
   5  O       8.00   -3.472969698    0.174390427   -0.228064215
   6  H       1.00    4.885869029    0.399817155   -1.154112053
   7  H       1.00    3.137894986    3.293724128   -0.804568538
   8  H       1.00    3.958837907    1.462459202    1.922152972
   9  H       1.00   -0.953285971   -3.746842434   -0.417724402
  10  H       1.00    2.423679681   -3.866887308   -0.786449234
  11  H       1.00    1.059176279   -3.251174123    2.258805940
  12  H       1.00   -3.756259128    1.041650672   -1.826589887

 Bond lengths in Bohr (Angstrom)

 1-2  2.846234368  1-6  2.087598118  1-7  2.087708372  1-8  2.103659241  2-3  2.847119917
     ( 1.506162359)     ( 1.104709345)     ( 1.104767689)     ( 1.113208526)     ( 1.506630971)

  2- 4  2.625975352   3- 9  2.082913785   3-10  2.087789673   3-11  2.106497528   4- 5  2.786760193
       ( 1.389606307)       ( 1.102230503)       ( 1.104810712)       ( 1.114710482)       ( 1.474689981)

  5-12  1.840564467
       ( 0.973984768)

 Bond angles

  1-2-3  120.39075208   1-2-4  108.92230933   2-1-6  110.03309560   2-1-7  110.76598917

  2- 1- 8  111.51307004   2- 3- 9  111.28211397   2- 3-10  109.81447367   2- 3-11  110.67261938

  2- 4- 5  109.23946093   3- 2- 4  118.03985942   4- 5-12   98.71149311   6- 1- 7  108.98508551

  6- 1- 8  107.68749034   7- 1- 8  107.75518979   9- 3-10  109.17624758   9- 3-11  107.80736990

 10- 3-11  108.00196848

 NUCLEAR CHARGE:                   41
 NUMBER OF PRIMITIVE AOS:         184
 NUMBER OF SYMMETRY AOS:          179
 NUMBER OF CONTRACTIONS:          105   ( 105A   )
 NUMBER OF CORE ORBITALS:           5   (   5A   )
 NUMBER OF VALENCE ORBITALS:       27   (  27A   )


 NUCLEAR REPULSION ENERGY  183.22882094


 Eigenvalues of metric

         1 0.345E-02 0.435E-02 0.105E-01 0.141E-01 0.182E-01 0.214E-01 0.331E-01 0.345E-01


 Contracted 2-electron integrals neglected if value below      1.0D-16
 AO integral compression algorithm  1   Integral accuracy      1.0D-16

     127.402 MB (compressed) written to integral file ( 93.4%)

     Node minimum: 40.632 MB, node maximum: 43.516 MB


 NUMBER OF SORTED TWO-ELECTRON INTEGRALS:    5164320.     BUFFER LENGTH:  32768
 NUMBER OF SEGMENTS:   1  SEGMENT LENGTH:    5164320      RECORD LENGTH: 524288

 Memory used in sort:       5.72 MW

 SORT1 READ    17075251. AND WROTE     5135922. INTEGRALS IN     15 RECORDS. CPU TIME:     0.18 SEC, REAL TIME:     0.23 SEC
 SORT2 READ    15396686. AND WROTE    15487395. INTEGRALS IN    498 RECORDS. CPU TIME:     0.06 SEC, REAL TIME:     0.09 SEC

 Node minimum:     5160610.  Node maximum:     5164320. integrals

 OPERATOR DM      FOR CENTER  0  COORDINATES:    0.000000    0.000000    0.000000


 **********************************************************************************************************************************
 DATASETS  * FILE   NREC   LENGTH (MB)   RECORD NAMES
              1      18        3.17       500      610      700      900      950      970     1000      129      960     1100   
                                          VAR    BASINP    GEOM    SYMINP    ZMAT    AOBASIS   BASIS     P2S    ABASIS      S 
                                         1400     1410     1200     1210     1080     1600     1650     1700   
                                           T        V       H0       H01     AOSYM     SMH    MOLCAS    OPER   

 PROGRAMS   *        TOTAL       INT
 CPU TIMES  *         0.82      0.74
 REAL TIME  *         1.22 SEC
 DISK USED  *       305.71 MB      
 GA USED    *         0.00 MB       (max)       0.00 MB       (current)
 **********************************************************************************************************************************

1PROGRAM * RHF-SCF (OPEN SHELL)       Authors: W. Meyer, H.-J. Werner


 NUMBER OF ELECTRONS:      21+   20-    SPACE SYMMETRY=1    SPIN SYMMETRY: Doublet 
 CONVERGENCE THRESHOLDS:    1.00E-10 (Density)    1.00E-11 (Energy)
 MAX. NUMBER OF ITERATIONS:      200
 INTERPOLATION TYPE:            DIIS
 INTERPOLATION STEPS:              2 (START)      1 (STEP)
 LEVEL SHIFTS:                 -0.30 (CLOSED)  0.00 (OPEN) 



 Orbital guess generated from atomic densities. Full valence occupancy:   32

 Molecular orbital dump at record        2100.2

 ITERATION    DDIFF          GRAD             ENERGY        2-EL.EN.            DIPOLE MOMENTS         DIIS
    1      0.000D+00      0.000D+00      -267.17825318    555.829677    0.57158    0.04999   -0.74790    0
    2      0.000D+00      0.617D-02      -267.24894545    555.750278    0.41483   -0.13063   -0.59817    1
    3      0.928D-02      0.214D-02      -267.26112925    555.668324    0.39449   -0.05870   -0.62571    2
    4      0.336D-02      0.912D-03      -267.26474173    555.820666    0.37978   -0.09886   -0.64226    3
    5      0.186D-02      0.364D-03      -267.26531196    555.792099    0.38229   -0.09239   -0.63532    4
    6      0.793D-03      0.110D-03      -267.26538866    555.778365    0.38055   -0.09219   -0.63809    5
    7      0.277D-03      0.512D-04      -267.26540889    555.775359    0.37983   -0.09194   -0.63759    6
    8      0.144D-03      0.273D-04      -267.26541497    555.773418    0.38010   -0.09205   -0.63781    7
    9      0.926D-04      0.115D-04      -267.26541589    555.773732    0.38028   -0.09201   -0.63756    8
   10      0.366D-04      0.502D-05      -267.26541605    555.774344    0.38054   -0.09202   -0.63763    9
   11      0.147D-04      0.197D-05      -267.26541608    555.774185    0.38059   -0.09202   -0.63763    9
   12      0.652D-05      0.671D-06      -267.26541608    555.774320    0.38061   -0.09202   -0.63763    9
   13      0.228D-05      0.227D-06      -267.26541608    555.774235    0.38062   -0.09202   -0.63763    9
   14      0.633D-06      0.760D-07      -267.26541608    555.774244    0.38062   -0.09202   -0.63763    9
   15      0.193D-06      0.302D-07      -267.26541608    555.774240    0.38062   -0.09202   -0.63763    9
   16      0.829D-07      0.146D-07      -267.26541608    555.774241    0.38062   -0.09202   -0.63763    9
   17      0.377D-07      0.755D-08      -267.26541608    555.774241    0.38062   -0.09202   -0.63763    9
   18      0.224D-07      0.343D-08      -267.26541608    555.774241    0.38062   -0.09202   -0.63763    9
   19      0.115D-07      0.134D-08      -267.26541608    555.774241    0.38062   -0.09202   -0.63763    9
   20      0.445D-08      0.570D-09      -267.26541608    555.774241    0.38062   -0.09202   -0.63763    9
   21      0.166D-08      0.288D-09      -267.26541608    555.774241    0.38062   -0.09202   -0.63763    9
   22      0.759D-09      0.162D-09      -267.26541608    555.774241    0.38062   -0.09202   -0.63763    9
   23      0.448D-09      0.800D-10      -267.26541608    555.774241    0.38062   -0.09202   -0.63763    9
   24      0.265D-09      0.319D-10      -267.26541608    555.774241    0.38062   -0.09202   -0.63763    9
   25      0.938D-10      0.130D-10      -267.26541608    555.774241    0.38062   -0.09202   -0.63763    0

 Final alpha occupancy:  21
 Final beta  occupancy:  20

 !RHF STATE 1.1 Energy               -267.265416079702
 Nuclear energy                       183.22882094
 One-electron energy                 -728.38135772
 Two-electron energy                  277.88712070
 Virial quotient                       -1.00154786
 !RHF STATE 1.1 Dipole moment           0.38061928    -0.09201878    -0.63762743
 Dipole moment /Debye                   0.96737435    -0.23387310    -1.62058112

 Orbital energies:

         1.1          2.1          3.1          4.1          5.1          6.1          7.1          8.1          9.1         10.1
    -20.630466   -20.628793   -11.279253   -11.237784   -11.232200    -1.470209    -1.240791    -1.023263    -0.945410    -0.768504

        11.1         12.1         13.1         14.1         15.1         16.1         17.1         18.1         19.1         20.1
     -0.704676    -0.643084    -0.626771    -0.588763    -0.545089    -0.543530    -0.538989    -0.517060    -0.493018    -0.469790

        21.1         22.1         23.1
     -0.352224     0.181329     0.183581


 **********************************************************************************************************************************
 DATASETS  * FILE   NREC   LENGTH (MB)   RECORD NAMES
              1      18        3.17       500      610      700      900      950      970     1000      129      960     1100   
                                          VAR    BASINP    GEOM    SYMINP    ZMAT    AOBASIS   BASIS     P2S    ABASIS      S 
                                         1400     1410     1200     1210     1080     1600     1650     1700   
                                           T        V       H0       H01     AOSYM     SMH    MOLCAS    OPER   

              2       3        0.77       700     1000     2100   
                                         GEOM     BASIS     RHF  

 PROGRAMS   *        TOTAL       RHF       INT
 CPU TIMES  *         1.75      0.93      0.74
 REAL TIME  *         2.29 SEC
 DISK USED  *       322.27 MB      
 SF USED    *         0.04 MB      
 GA USED    *         0.00 MB       (max)       0.00 MB       (current)
 **********************************************************************************************************************************


1PROGRAM * CCSD (Unrestricted open-shell coupled cluster)     Authors: C. Hampel, H.-J. Werner, 1991, M. Deegan, P.J. Knowles, 1992


 Convergence thresholds:  THRVAR = 1.00D-08  THRDEN = 1.00D-10

 CCSD(T)     terms to be evaluated (factor= 1.000)


 Number of core orbitals:           5 (   5 )
 Number of closed-shell orbitals:  15 (  15 )
 Number of active  orbitals:        1 (   1 )
 Number of external orbitals:      84 (  84 )

 Memory could be reduced to 24.91 Mwords without degradation in triples

 Number of N-1 electron functions:              31
 Number of N-2 electron functions:             465
 Number of singly external CSFs:              2635
 Number of doubly external CSFs:           2537250
 Total number of CSFs:                     2539885

 Molecular orbitals read from record     2100.2  Type=RHF/CANONICAL (state 1.1)

 Integral transformation finished. Total CPU:   0.87 sec, npass=  1  Memory used:  12.63 MW

 Starting RMP2 calculation

 ITER.      SQ.NORM     CORR.ENERGY   TOTAL ENERGY   ENERGY CHANGE        DEN1      VAR(S)    VAR(P)  DIIS     TIME
   1      1.24300750    -0.78635469  -268.05177077    -0.78635469    -0.00304936  0.20D-04  0.11D-02  1  1     1.17
   2      1.24564847    -0.78964320  -268.05505928    -0.00328851    -0.00000475  0.54D-06  0.19D-05  2  2     1.41
   3      1.24571404    -0.78968528  -268.05510136    -0.00004207    -0.00000003  0.16D-07  0.68D-08  3  3     1.67
   4      1.24571500    -0.78968528  -268.05510136    -0.00000000    -0.00000000  0.27D-09  0.38D-10  4  4     1.96
   5      1.24571508    -0.78968531  -268.05510139    -0.00000003    -0.00000000  0.25D-11  0.65D-12  5  5     2.26
   6      1.24571509    -0.78968532  -268.05510140    -0.00000001    -0.00000000  0.28D-13  0.87D-14  6  6     2.59
   7      1.24571509    -0.78968532  -268.05510140     0.00000000    -0.00000000  0.47D-15  0.12D-15  6  1     2.92
   8      1.24571509    -0.78968532  -268.05510140     0.00000000    -0.00000000  0.60D-17  0.13D-17  6  2     3.25

 Norm of t1 vector:      0.03894546      S-energy:    -0.00227271      T1 diagnostic:  0.00055048
 Norm of t2 vector:      0.49416429      P-energy:    -0.78741261
                                         Alpha-Beta:  -0.59339558
                                         Alpha-Alpha: -0.10094029
                                         Beta-Beta:   -0.09307673

 Spin contamination <S**2-Sz**2-Sz>     0.00104104
  Reference energy                   -267.265416079702
  RHF-RMP2 correlation energy          -0.789685318368
 !RHF-RMP2 energy                    -268.055101398070

 Starting UCCSD calculation

 ITER.      SQ.NORM     CORR.ENERGY   TOTAL ENERGY   ENERGY CHANGE        DEN1      VAR(S)    VAR(P)  DIIS     TIME
   1      1.26278112    -0.80902954  -268.07444562    -0.80902954    -0.02515344  0.38D-02  0.59D-02  1  1     7.97
   2      1.29155133    -0.83643584  -268.10185192    -0.02740630    -0.00201081  0.22D-03  0.66D-03  2  2    12.68
   3      1.30149122    -0.84093301  -268.10634909    -0.00449717    -0.00032464  0.19D-03  0.56D-04  3  3    17.42
   4      1.30640486    -0.84241004  -268.10782612    -0.00147703    -0.00007211  0.43D-04  0.14D-04  4  4    22.19
   5      1.30913601    -0.84279828  -268.10821436    -0.00038824    -0.00002368  0.19D-04  0.32D-05  5  5    26.97
   6      1.31107657    -0.84300287  -268.10841895    -0.00020459    -0.00000646  0.42D-05  0.12D-05  6  6    31.77
   7      1.31202683    -0.84306171  -268.10847779    -0.00005884    -0.00000208  0.14D-05  0.37D-06  6  2    36.62
   8      1.31246895    -0.84310442  -268.10852050    -0.00004271    -0.00000065  0.45D-06  0.11D-06  6  1    41.44
   9      1.31265439    -0.84310901  -268.10852508    -0.00000459    -0.00000022  0.15D-06  0.35D-07  6  4    46.24
  10      1.31271762    -0.84311193  -268.10852801    -0.00000293    -0.00000005  0.35D-07  0.95D-08  6  3    51.04
  11      1.31274712    -0.84311067  -268.10852675     0.00000126    -0.00000002  0.13D-07  0.28D-08  6  5    55.86
  12      1.31275751    -0.84311041  -268.10852649     0.00000026    -0.00000000  0.26D-08  0.95D-09  6  6    60.67
  13      1.31275637    -0.84310950  -268.10852558     0.00000091    -0.00000000  0.96D-09  0.28D-09  6  2    65.48
  14      1.31275116    -0.84310866  -268.10852474     0.00000084    -0.00000000  0.21D-09  0.68D-10  6  1    70.28
  15      1.31274708    -0.84310807  -268.10852415     0.00000059    -0.00000000  0.78D-10  0.19D-10  6  4    75.90
  16      1.31274390    -0.84310769  -268.10852377     0.00000038    -0.00000000  0.28D-10  0.63D-11  6  3    81.62
  17      1.31274170    -0.84310745  -268.10852353     0.00000024    -0.00000000  0.10D-10  0.24D-11  6  5    87.43
  18      1.31274079    -0.84310739  -268.10852347     0.00000006    -0.00000000  0.41D-11  0.87D-12  6  6    93.15
  19      1.31274018    -0.84310735  -268.10852343     0.00000003    -0.00000000  0.16D-11  0.37D-12  6  2    98.86
  20      1.31273986    -0.84310734  -268.10852342     0.00000001    -0.00000000  0.60D-12  0.13D-12  6  1   104.61
  21      1.31273969    -0.84310733  -268.10852341     0.00000001    -0.00000000  0.28D-12  0.58D-13  6  4   110.31
  22      1.31273957    -0.84310732  -268.10852340     0.00000001    -0.00000000  0.74D-13  0.21D-13  6  3   116.04
  23      1.31273951    -0.84310732  -268.10852340     0.00000000    -0.00000000  0.21D-13  0.63D-14  6  5   121.74
  24      1.31273951    -0.84310732  -268.10852340    -0.00000000    -0.00000000  0.67D-14  0.23D-14  6  6   127.46
  25      1.31273951    -0.84310732  -268.10852340    -0.00000000    -0.00000000  0.21D-14  0.52D-15  6  2   133.17
  26      1.31273952    -0.84310732  -268.10852340    -0.00000000    -0.00000000  0.77D-15  0.15D-15  6  1   138.89
  27      1.31273953    -0.84310732  -268.10852340    -0.00000000    -0.00000000  0.20D-15  0.63D-16  6  3   144.61
  28      1.31273953    -0.84310732  -268.10852340    -0.00000000    -0.00000000  0.30D-16  0.11D-16  6  4   150.31
  29      1.31273954    -0.84310732  -268.10852340    -0.00000000    -0.00000000  0.71D-17  0.29D-17  6  5   156.03
  30      1.31273954    -0.84310732  -268.10852340    -0.00000000    -0.00000000  0.15D-17  0.54D-18  6  6   161.73
  31      1.31273954    -0.84310732  -268.10852340    -0.00000000    -0.00000000  0.35D-18  0.10D-18  6  2   167.42

 Norm of t1 vector:      0.13873255      S-energy:    -0.00282281      T1 diagnostic:  0.01616979
                                                                       D1 diagnostic:  0.06281298
 Norm of t2 vector:      0.54174977      P-energy:    -0.84028451
                                         Alpha-Beta:  -0.66483931
                                         Alpha-Alpha: -0.09147508
                                         Beta-Beta:   -0.08397012

 Spin contamination <S**2-Sz**2-Sz>     0.00217463

 Memory could be reduced to 28.85 Mwords without degradation in triples
 

 RESULTS
 =======

  Reference energy                   -267.265416079702
  UCCSD singles energy                 -0.002822813839
  UCCSD pair energy                    -0.840284509499
  UCCSD correlation energy             -0.843107323337
  Triples (T) contribution             -0.024973344171
  Total correlation energy             -0.868080667508
 
  RHF-UCCSD energy                   -268.108523403039
  RHF-UCCSD[T] energy                -268.134832368616
  RHF-UCCSD-T energy                 -268.133075380488
 !RHF-UCCSD(T) energy                -268.133496747210

 Program statistics:

 Available memory in ccsd:               999997692
 Min. memory needed in ccsd:               7337057
 Max. memory used in ccsd:                10523002
 Max. memory used in cckext:              10867977 (31 integral passes)
 Max. memory used in cckint:              12633073 ( 1 integral passes)



 **********************************************************************************************************************************
 DATASETS  * FILE   NREC   LENGTH (MB)   RECORD NAMES
              1      18        3.17       500      610      700      900      950      970     1000      129      960     1100   
                                          VAR    BASINP    GEOM    SYMINP    ZMAT    AOBASIS   BASIS     P2S    ABASIS      S 
                                         1400     1410     1200     1210     1080     1600     1650     1700   
                                           T        V       H0       H01     AOSYM     SMH    MOLCAS    OPER   

              2       3        0.77       700     1000     2100   
                                         GEOM     BASIS     RHF  

 PROGRAMS   *        TOTAL  UCCSD(T)       RHF       INT
 CPU TIMES  *       208.65    206.90      0.93      0.74
 REAL TIME  *       217.96 SEC
 DISK USED  *         1.29 GB      
 SF USED    *       553.73 MB      
 GA USED    *         0.00 MB       (max)       0.00 MB       (current)
 **********************************************************************************************************************************

        UCCSD(T)        RHF-SCF 
   -268.13349675   -267.26541608
 **********************************************************************************************************************************
 Variable memory released
