
 Primary working directories    : /tmp/320938.683.gen4.q
 Secondary working directories  : /tmp/320938.683.gen4.q
 Wavefunction directory         : /home/vulcan/mel64643/wfu/
 Main file repository           : /tmp/320938.683.gen4.q/

 ARCHNAME  : Linux/x86_64
 FC        : /opt/intel/compilers_and_libraries_2016.1.150/linux/bin/intel64/ifort
 FCVERSION : 16.0.1
 BLASLIB   : -mkl
 id        : ccgc

 Nodes     nprocs
 n046         3
 Number of processes for MPI-2 version of Molpro:   nprocs(total)=    4   nprocs(compute)=    3   nprocs(helper)=    1
 ga_uses_ma=false, calling ma_init with nominal heap.
 GA-space will be limited to   8.0 MW (determined by -G option)

 Using customized tuning parameters: mindgm=10; mindgv=16; mindgc=4; mindgr=1; noblas=0; mincuda=1000; minvec=7
 default implementation of scratch files=sf  

 ***,Frequencies for min3
 memory,1000,m
 gthresh,energy=1.0d-10,orbital=1.0d-10,oneint=1.0d-16,twoint=1.0d-16,optgrad=1.0d-6,compress=1.0d-13
 geomtyp=xyz
 
  geometry = {
  12
  arbitrary comment
     C    1.776964391707    0.711398808326   -0.047331391796
     C    0.491811976407   -0.059992870174   -0.196493901896
     C    0.450332819107   -1.536294019674    0.101417522804
     O   -0.560767745493    0.727234937526    0.254453964104
     O   -1.837840335593    0.092269037726   -0.120531795196
     H    2.585373063107    0.211465914126   -0.611440883996
     H    1.660426393907    1.742887987326   -0.426532369096
     H    2.097119204326    0.774552271997    1.018306783219
     H   -0.502930433893   -1.982933432989   -0.220193900285
     H    1.280646129009   -2.047268452893   -0.417241024980
     H    0.560496924504   -1.719139727902    1.194624516449
     H   -1.989447672510    0.550523445017   -0.967340195580
  }
 
 basis=cc-pvdz
 {rhf;maxit,200}
 {uccsd(t);maxit,200}

 Variables initialized (661), CPU time= 0.00 sec
 Commands  initialized (458), CPU time= 0.00 sec, 486 directives.
 Default parameters read. Elapsed time= 0.07 sec

 Checking input...
 Passed
1


                                         ***  PROGRAM SYSTEM MOLPRO  ***
                         Copyright, University College Cardiff Consultants Limited, 2008

                                    Version 2010.1 linked May 16 2016 07:17:05


 **********************************************************************************************************************************
 LABEL *   Frequencies for min3                                                          
 Linux-4.4.3/n046(x86_64) 64 bit mpp version                                             DATE: 07-Mar-20          TIME: 04:59:35  
 **********************************************************************************************************************************

 SHA1:             9e8077add272b0f3cad6f7df79ec5211205f459d
 **********************************************************************************************************************************

 THRESHOLDS:

 ZERO    =  1.00D-12  ONEINT  =  1.00D-16  TWOINT  =  1.00D-16  PREFAC  =  1.00D-14  LOCALI  =  1.00D-09  EORDER  =  1.00D-04
 ENERGY  =  1.00D-10  ETEST   =  0.00D+00  EDENS   =  0.00D+00  THRDEDEF=  1.00D-06  GRADIENT=  1.00D-02  STEP    =  1.00D-03
 ORBITAL =  1.00D-10  CIVEC   =  1.00D-05  COEFF   =  1.00D-04  PRINTCI =  5.00D-02  PUNCHCI =  9.90D+01  OPTGRAD =  1.00D-06
 OPTENERG=  1.00D-06  OPTSTEP =  3.00D-04  THRGRAD =  1.00D-10  COMPRESS=  1.00D-13  VARMIN  =  1.00D-07  VARMAX  =  1.00D-03
 THRDOUB =  0.00D+00  THRDIV  =  1.00D-05  THRRED  =  1.00D-07  THRPSP  =  1.00D+00  THRDC   =  1.00D-10  THRCS   =  1.00D-10
 THRNRM  =  1.00D-08  THREQ   =  0.00D+00  THRDE   =  1.00D+00  THRREF  =  1.00D-05  SPARFAC =  1.00D+00  THRDLP  =  1.00D-07
 THRDIA  =  1.00D-10  THRDLS  =  1.00D-07  THRGPS  =  0.00D+00  THRKEX  =  0.00D+00  THRDIS  =  2.00D-01  THRVAR  =  1.00D-10
 THRLOC  =  1.00D-06  THRGAP  =  1.00D-06  THRLOCT = -1.00D+00  THRGAPT = -1.00D+00  THRORB  =  1.00D-06  THRMLTP =  0.00D+00
 THRCPQCI=  1.00D-10  KEXTA   =  0.00D+00  THRCOARS=  0.00D+00  SYMTOL  =  1.00D-06  GRADTOL =  1.00D-06  THROVL  =  1.00D-08
 THRORTH =  1.00D-08  GRID    =  1.00D-06  GRIDMAX =  1.00D-03  DTMAX   =  0.00D+00

 SETTING GEOMTYP        =    XYZ

 Variable memory set to 1000000000 words,  buffer space   230000 words

 SETTING BASIS          =    CC-PVDZ


 Recomputing integrals since basis changed


 Using spherical harmonics

 Library entry C      S cc-pVDZ              selected for orbital group  1
 Library entry C      P cc-pVDZ              selected for orbital group  1
 Library entry C      D cc-pVDZ              selected for orbital group  1
 Library entry O      S cc-pVDZ              selected for orbital group  2
 Library entry O      P cc-pVDZ              selected for orbital group  2
 Library entry O      D cc-pVDZ              selected for orbital group  2
 Library entry H      S cc-pVDZ              selected for orbital group  3
 Library entry H      P cc-pVDZ              selected for orbital group  3

1PROGRAM * SEWARD (Integral evaluation for generally contracted gaussian basis sets)     Author: Roland Lindh, 1990

 Geometry written to block  1 of record 700


 Point group  C1  



 ATOMIC COORDINATES

 NR  ATOM    CHARGE       X              Y              Z

   1  C       6.00    3.357976046    1.344348918   -0.089443368
   2  C       6.00    0.929389944   -0.113370094   -0.371319661
   3  C       6.00    0.851005696   -2.903174955    0.191651343
   4  O       8.00   -1.059697462    1.374274865    0.480848305
   5  O       8.00   -3.473014908    0.174363212   -0.227772083
   6  H       1.00    4.885647037    0.399612664   -1.155455816
   7  H       1.00    3.137751146    3.293580974   -0.806029364
   8  H       1.00    3.962980961    1.463691669    1.924320938
   9  H       1.00   -0.950400783   -3.747201125   -0.416106167
  10  H       1.00    2.420070455   -3.868776693   -0.788471268
  11  H       1.00    1.059185685   -3.248703267    2.257513166
  12  H       1.00   -3.759511254    1.040338540   -1.828008046

 Bond lengths in Bohr (Angstrom)

 1-2  2.846476668  1-6  2.088704811  1-7  2.088420481  1-8  2.106067501  2-3  2.847119878
     ( 1.506290578)     ( 1.105294982)     ( 1.105144521)     ( 1.114482922)     ( 1.506630951)

  2- 4  2.625975338   3- 9  2.080099678   3-10  2.086861584   3-11  2.104878570   4- 5  2.786760112
       ( 1.389606300)       ( 1.100741342)       ( 1.104319588)       ( 1.113853767)       ( 1.474689938)

  5-12  1.841941520
       ( 0.974713472)

 Bond angles

  1-2-3  120.37866573   1-2-4  108.90555081   2-1-6  109.98947225   2-1-7  110.73429490

  2- 1- 8  111.64161223   2- 3- 9  111.32533972   2- 3-10  109.86605141   2- 3-11  110.62173204

  2- 4- 5  109.23946113   3- 2- 4  118.03986083   4- 5-12   98.81116824   6- 1- 7  108.91518355

  6- 1- 8  107.66950754   7- 1- 8  107.78754214   9- 3-10  109.03631417   9- 3-11  107.80661967

 10- 3-11  108.09770848

 NUCLEAR CHARGE:                   41
 NUMBER OF PRIMITIVE AOS:         184
 NUMBER OF SYMMETRY AOS:          179
 NUMBER OF CONTRACTIONS:          105   ( 105A   )
 NUMBER OF CORE ORBITALS:           5   (   5A   )
 NUMBER OF VALENCE ORBITALS:       27   (  27A   )


 NUCLEAR REPULSION ENERGY  183.22046432


 Eigenvalues of metric

         1 0.345E-02 0.435E-02 0.105E-01 0.141E-01 0.182E-01 0.214E-01 0.331E-01 0.345E-01


 Contracted 2-electron integrals neglected if value below      1.0D-16
 AO integral compression algorithm  1   Integral accuracy      1.0D-16

     127.664 MB (compressed) written to integral file ( 93.2%)

     Node minimum: 40.632 MB, node maximum: 45.089 MB


 NUMBER OF SORTED TWO-ELECTRON INTEGRALS:    5164320.     BUFFER LENGTH:  32768
 NUMBER OF SEGMENTS:   1  SEGMENT LENGTH:    5164320      RECORD LENGTH: 524288

 Memory used in sort:       5.72 MW

 SORT1 READ    17075548. AND WROTE     5135854. INTEGRALS IN     15 RECORDS. CPU TIME:     0.22 SEC, REAL TIME:     0.25 SEC
 SORT2 READ    15396495. AND WROTE    15487395. INTEGRALS IN    465 RECORDS. CPU TIME:     0.07 SEC, REAL TIME:     0.11 SEC

 Node minimum:     5160610.  Node maximum:     5164320. integrals

 OPERATOR DM      FOR CENTER  0  COORDINATES:    0.000000    0.000000    0.000000


 **********************************************************************************************************************************
 DATASETS  * FILE   NREC   LENGTH (MB)   RECORD NAMES
              1      18        3.17       500      610      700      900      950      970     1000      129      960     1100   
                                          VAR    BASINP    GEOM    SYMINP    ZMAT    AOBASIS   BASIS     P2S    ABASIS      S 
                                         1400     1410     1200     1210     1080     1600     1650     1700   
                                           T        V       H0       H01     AOSYM     SMH    MOLCAS    OPER   

 PROGRAMS   *        TOTAL       INT
 CPU TIMES  *         0.92      0.88
 REAL TIME  *         1.40 SEC
 DISK USED  *       306.48 MB      
 GA USED    *         0.00 MB       (max)       0.00 MB       (current)
 **********************************************************************************************************************************

1PROGRAM * RHF-SCF (OPEN SHELL)       Authors: W. Meyer, H.-J. Werner


 NUMBER OF ELECTRONS:      21+   20-    SPACE SYMMETRY=1    SPIN SYMMETRY: Doublet 
 CONVERGENCE THRESHOLDS:    1.00E-10 (Density)    1.00E-11 (Energy)
 MAX. NUMBER OF ITERATIONS:      200
 INTERPOLATION TYPE:            DIIS
 INTERPOLATION STEPS:              2 (START)      1 (STEP)
 LEVEL SHIFTS:                 -0.30 (CLOSED)  0.00 (OPEN) 



 Orbital guess generated from atomic densities. Full valence occupancy:   32

 Molecular orbital dump at record        2100.2

 ITERATION    DDIFF          GRAD             ENERGY        2-EL.EN.            DIPOLE MOMENTS         DIIS
    1      0.000D+00      0.000D+00      -267.17825082    555.816091    0.56937    0.04973   -0.74951    0
    2      0.000D+00      0.617D-02      -267.24894635    555.736411    0.41315   -0.13162   -0.59930    1
    3      0.928D-02      0.214D-02      -267.26112273    555.654416    0.39281   -0.05985   -0.62675    2
    4      0.336D-02      0.912D-03      -267.26473012    555.806622    0.37820   -0.10010   -0.64320    3
    5      0.186D-02      0.363D-03      -267.26529889    555.777995    0.38074   -0.09366   -0.63621    4
    6      0.792D-03      0.110D-03      -267.26537518    555.764242    0.37901   -0.09347   -0.63895    5
    7      0.277D-03      0.510D-04      -267.26539527    555.761237    0.37830   -0.09322   -0.63845    6
    8      0.143D-03      0.272D-04      -267.26540130    555.759292    0.37857   -0.09333   -0.63866    7
    9      0.922D-04      0.115D-04      -267.26540222    555.759603    0.37876   -0.09329   -0.63842    8
   10      0.365D-04      0.501D-05      -267.26540238    555.760216    0.37902   -0.09330   -0.63848    9
   11      0.147D-04      0.196D-05      -267.26540240    555.760057    0.37907   -0.09330   -0.63849    9
   12      0.651D-05      0.670D-06      -267.26540241    555.760192    0.37909   -0.09330   -0.63848    9
   13      0.227D-05      0.226D-06      -267.26540241    555.760108    0.37909   -0.09330   -0.63848    9
   14      0.632D-06      0.758D-07      -267.26540241    555.760116    0.37909   -0.09330   -0.63848    9
   15      0.193D-06      0.300D-07      -267.26540241    555.760112    0.37910   -0.09330   -0.63848    9
   16      0.825D-07      0.145D-07      -267.26540241    555.760114    0.37910   -0.09330   -0.63848    9
   17      0.375D-07      0.752D-08      -267.26540241    555.760114    0.37910   -0.09330   -0.63848    9
   18      0.223D-07      0.342D-08      -267.26540241    555.760114    0.37910   -0.09330   -0.63848    9
   19      0.114D-07      0.133D-08      -267.26540241    555.760114    0.37910   -0.09330   -0.63848    9
   20      0.444D-08      0.567D-09      -267.26540241    555.760114    0.37910   -0.09330   -0.63848    9
   21      0.165D-08      0.286D-09      -267.26540241    555.760114    0.37910   -0.09330   -0.63848    9
   22      0.754D-09      0.162D-09      -267.26540241    555.760114    0.37910   -0.09330   -0.63848    9
   23      0.446D-09      0.796D-10      -267.26540241    555.760114    0.37910   -0.09330   -0.63848    9
   24      0.264D-09      0.317D-10      -267.26540241    555.760114    0.37910   -0.09330   -0.63848    9
   25      0.932D-10      0.129D-10      -267.26540241    555.760114    0.37910   -0.09330   -0.63848    0

 Final alpha occupancy:  21
 Final beta  occupancy:  20

 !RHF STATE 1.1 Energy               -267.265402407195
 Nuclear energy                       183.22046432
 One-electron energy                 -728.36592371
 Two-electron energy                  277.88005698
 Virial quotient                       -1.00155159
 !RHF STATE 1.1 Dipole moment           0.37909621    -0.09330181    -0.63848031
 Dipole moment /Debye                   0.96350335    -0.23713402    -1.62274878

 Orbital energies:

         1.1          2.1          3.1          4.1          5.1          6.1          7.1          8.1          9.1         10.1
    -20.630486   -20.628799   -11.279293   -11.237989   -11.231902    -1.470071    -1.240664    -1.023231    -0.945424    -0.768524

        11.1         12.1         13.1         14.1         15.1         16.1         17.1         18.1         19.1         20.1
     -0.704525    -0.643094    -0.626704    -0.588738    -0.545194    -0.543427    -0.538865    -0.516980    -0.492977    -0.469853

        21.1         22.1         23.1
     -0.352328     0.181299     0.183499


 **********************************************************************************************************************************
 DATASETS  * FILE   NREC   LENGTH (MB)   RECORD NAMES
              1      18        3.17       500      610      700      900      950      970     1000      129      960     1100   
                                          VAR    BASINP    GEOM    SYMINP    ZMAT    AOBASIS   BASIS     P2S    ABASIS      S 
                                         1400     1410     1200     1210     1080     1600     1650     1700   
                                           T        V       H0       H01     AOSYM     SMH    MOLCAS    OPER   

              2       3        0.77       700     1000     2100   
                                         GEOM     BASIS     RHF  

 PROGRAMS   *        TOTAL       RHF       INT
 CPU TIMES  *         2.08      1.16      0.88
 REAL TIME  *         2.84 SEC
 DISK USED  *       323.05 MB      
 SF USED    *         0.04 MB      
 GA USED    *         0.00 MB       (max)       0.00 MB       (current)
 **********************************************************************************************************************************


1PROGRAM * CCSD (Unrestricted open-shell coupled cluster)     Authors: C. Hampel, H.-J. Werner, 1991, M. Deegan, P.J. Knowles, 1992


 Convergence thresholds:  THRVAR = 1.00D-08  THRDEN = 1.00D-10

 CCSD(T)     terms to be evaluated (factor= 1.000)


 Number of core orbitals:           5 (   5 )
 Number of closed-shell orbitals:  15 (  15 )
 Number of active  orbitals:        1 (   1 )
 Number of external orbitals:      84 (  84 )

 Memory could be reduced to 24.91 Mwords without degradation in triples

 Number of N-1 electron functions:              31
 Number of N-2 electron functions:             465
 Number of singly external CSFs:              2635
 Number of doubly external CSFs:           2537250
 Total number of CSFs:                     2539885

 Molecular orbitals read from record     2100.2  Type=RHF/CANONICAL (state 1.1)

 Integral transformation finished. Total CPU:   1.26 sec, npass=  1  Memory used:  12.63 MW

 Starting RMP2 calculation

 ITER.      SQ.NORM     CORR.ENERGY   TOTAL ENERGY   ENERGY CHANGE        DEN1      VAR(S)    VAR(P)  DIIS     TIME
   1      1.24301710    -0.78636327  -268.05176568    -0.78636327    -0.00304962  0.20D-04  0.11D-02  1  1     1.70
   2      1.24565829    -0.78965207  -268.05505448    -0.00328881    -0.00000475  0.54D-06  0.19D-05  2  2     2.06
   3      1.24572386    -0.78969415  -268.05509655    -0.00004207    -0.00000003  0.16D-07  0.68D-08  3  3     2.47
   4      1.24572482    -0.78969415  -268.05509656    -0.00000000    -0.00000000  0.27D-09  0.38D-10  4  4     2.89
   5      1.24572490    -0.78969418  -268.05509659    -0.00000003    -0.00000000  0.25D-11  0.65D-12  5  5     3.35
   6      1.24572492    -0.78969419  -268.05509660    -0.00000001    -0.00000000  0.28D-13  0.87D-14  6  6     3.83
   7      1.24572492    -0.78969419  -268.05509659     0.00000000    -0.00000000  0.47D-15  0.12D-15  6  1     4.35
   8      1.24572492    -0.78969419  -268.05509659     0.00000000    -0.00000000  0.60D-17  0.13D-17  6  2     4.82

 Norm of t1 vector:      0.03893432      S-energy:    -0.00227162      T1 diagnostic:  0.00055052
 Norm of t2 vector:      0.49417510      P-energy:    -0.78742257
                                         Alpha-Beta:  -0.59340566
                                         Alpha-Alpha: -0.10093911
                                         Beta-Beta:   -0.09307780

 Spin contamination <S**2-Sz**2-Sz>     0.00104054
  Reference energy                   -267.265402407195
  RHF-RMP2 correlation energy          -0.789694187637
 !RHF-RMP2 energy                    -268.055096594833

 Starting UCCSD calculation

 ITER.      SQ.NORM     CORR.ENERGY   TOTAL ENERGY   ENERGY CHANGE        DEN1      VAR(S)    VAR(P)  DIIS     TIME
   1      1.26278975    -0.80903550  -268.07443791    -0.80903550    -0.02515547  0.38D-02  0.59D-02  1  1    11.04
   2      1.29156404    -0.83644419  -268.10184660    -0.02740869    -0.00201129  0.22D-03  0.66D-03  2  2    17.36
   3      1.30150714    -0.84094239  -268.10634480    -0.00449821    -0.00032477  0.19D-03  0.56D-04  3  3    24.26
   4      1.30642289    -0.84241994  -268.10782235    -0.00147755    -0.00007213  0.43D-04  0.14D-04  4  4    31.92
   5      1.30915505    -0.84280835  -268.10821076    -0.00038841    -0.00002368  0.19D-04  0.32D-05  5  5    39.62
   6      1.31109527    -0.84301293  -268.10841534    -0.00020458    -0.00000646  0.42D-05  0.12D-05  6  6    47.33
   7      1.31204469    -0.84307173  -268.10847414    -0.00005880    -0.00000208  0.14D-05  0.37D-06  6  2    55.02
   8      1.31248619    -0.84311441  -268.10851682    -0.00004267    -0.00000065  0.45D-06  0.11D-06  6  1    62.72
   9      1.31267144    -0.84311899  -268.10852140    -0.00000458    -0.00000022  0.15D-06  0.35D-07  6  4    70.45
  10      1.31273465    -0.84312193  -268.10852433    -0.00000293    -0.00000005  0.35D-07  0.95D-08  6  3    78.20
  11      1.31276414    -0.84312066  -268.10852307     0.00000126    -0.00000002  0.13D-07  0.28D-08  6  5    84.74
  12      1.31277452    -0.84312040  -268.10852281     0.00000026    -0.00000000  0.26D-08  0.95D-09  6  6    91.20
  13      1.31277337    -0.84311948  -268.10852189     0.00000092    -0.00000000  0.96D-09  0.28D-09  6  2    97.66
  14      1.31276816    -0.84311864  -268.10852105     0.00000084    -0.00000000  0.21D-09  0.68D-10  6  1   104.13
  15      1.31276408    -0.84311805  -268.10852046     0.00000059    -0.00000000  0.78D-10  0.19D-10  6  4   109.80
  16      1.31276089    -0.84311767  -268.10852008     0.00000038    -0.00000000  0.28D-10  0.63D-11  6  3   115.32
  17      1.31275869    -0.84311743  -268.10851984     0.00000024    -0.00000000  0.10D-10  0.24D-11  6  5   120.77
  18      1.31275779    -0.84311737  -268.10851978     0.00000006    -0.00000000  0.41D-11  0.87D-12  6  6   126.24
  19      1.31275718    -0.84311734  -268.10851974     0.00000003    -0.00000000  0.16D-11  0.37D-12  6  2   131.69
  20      1.31275686    -0.84311732  -268.10851973     0.00000001    -0.00000000  0.60D-12  0.13D-12  6  1   137.15
  21      1.31275669    -0.84311731  -268.10851972     0.00000001    -0.00000000  0.28D-12  0.58D-13  6  4   142.62
  22      1.31275657    -0.84311731  -268.10851971     0.00000001    -0.00000000  0.74D-13  0.21D-13  6  3   148.13
  23      1.31275651    -0.84311730  -268.10851971     0.00000000    -0.00000000  0.21D-13  0.63D-14  6  5   153.56
  24      1.31275651    -0.84311730  -268.10851971    -0.00000000    -0.00000000  0.68D-14  0.23D-14  6  6   159.06
  25      1.31275651    -0.84311731  -268.10851971    -0.00000000    -0.00000000  0.21D-14  0.52D-15  6  2   164.50
  26      1.31275652    -0.84311731  -268.10851971    -0.00000000    -0.00000000  0.77D-15  0.15D-15  6  1   170.02
  27      1.31275653    -0.84311731  -268.10851971    -0.00000000    -0.00000000  0.20D-15  0.63D-16  6  3   175.48
  28      1.31275653    -0.84311731  -268.10851971    -0.00000000    -0.00000000  0.30D-16  0.11D-16  6  4   180.96
  29      1.31275653    -0.84311731  -268.10851971    -0.00000000    -0.00000000  0.71D-17  0.29D-17  6  5   186.47
  30      1.31275654    -0.84311731  -268.10851971    -0.00000000    -0.00000000  0.15D-17  0.54D-18  6  6   191.93
  31      1.31275654    -0.84311731  -268.10851971    -0.00000000    -0.00000000  0.35D-18  0.10D-18  6  2   197.38

 Norm of t1 vector:      0.13874155      S-energy:    -0.00282136      T1 diagnostic:  0.01617224
                                                                       D1 diagnostic:  0.06283845
 Norm of t2 vector:      0.54176316      P-energy:    -0.84029594
                                         Alpha-Beta:  -0.66485379
                                         Alpha-Alpha: -0.09147232
                                         Beta-Beta:   -0.08396984

 Spin contamination <S**2-Sz**2-Sz>     0.00217245

 Memory could be reduced to 28.85 Mwords without degradation in triples
 

 RESULTS
 =======

  Reference energy                   -267.265402407195
  UCCSD singles energy                 -0.002821363623
  UCCSD pair energy                    -0.840295943663
  UCCSD correlation energy             -0.843117307285
  Triples (T) contribution             -0.024974196901
  Total correlation energy             -0.868091504186
 
  RHF-UCCSD energy                   -268.108519714481
  RHF-UCCSD[T] energy                -268.134829889408
  RHF-UCCSD-T energy                 -268.133072422358
 !RHF-UCCSD(T) energy                -268.133493911381

 Program statistics:

 Available memory in ccsd:               999997692
 Min. memory needed in ccsd:               7337057
 Max. memory used in ccsd:                10523002
 Max. memory used in cckext:              10867977 (31 integral passes)
 Max. memory used in cckint:              12633073 ( 1 integral passes)



 **********************************************************************************************************************************
 DATASETS  * FILE   NREC   LENGTH (MB)   RECORD NAMES
              1      18        3.17       500      610      700      900      950      970     1000      129      960     1100   
                                          VAR    BASINP    GEOM    SYMINP    ZMAT    AOBASIS   BASIS     P2S    ABASIS      S 
                                         1400     1410     1200     1210     1080     1600     1650     1700   
                                           T        V       H0       H01     AOSYM     SMH    MOLCAS    OPER   

              2       3        0.77       700     1000     2100   
                                         GEOM     BASIS     RHF  

 PROGRAMS   *        TOTAL  UCCSD(T)       RHF       INT
 CPU TIMES  *       245.50    243.41      1.16      0.88
 REAL TIME  *       258.90 SEC
 DISK USED  *         1.29 GB      
 SF USED    *       553.73 MB      
 GA USED    *         0.00 MB       (max)       0.00 MB       (current)
 **********************************************************************************************************************************

        UCCSD(T)        RHF-SCF 
   -268.13349391   -267.26540241
 **********************************************************************************************************************************
 Variable memory released
