    -----------------------------------------------------------------------
          Psi4: An Open-Source Ab Initio Electronic Structure Package
                              Psi4 1.0rc90 Driver

                          Git: Rev {master} 87fd1c8 dirty

    J. M. Turney, A. C. Simmonett, R. M. Parrish, E. G. Hohenstein,
    F. A. Evangelista, J. T. Fermann, B. J. Mintz, L. A. Burns, J. J. Wilke,
    M. L. Abrams, N. J. Russ, M. L. Leininger, C. L. Janssen, E. T. Seidl,
    W. D. Allen, H. F. Schaefer, R. A. King, E. F. Valeev, C. D. Sherrill,
    and T. D. Crawford, WIREs Comput. Mol. Sci. 2, 556-565 (2012)
    (doi: 10.1002/wcms.93)

                         Additional Contributions by
    A. E. DePrince, U. Bozkaya, A. Yu. Sokolov, D. G. A. Smith, R. Di Remigio,
    R. M. Richard, J. F. Gonthier, H. R. McAlexander, M. Saitow, and
    B. P. Pritchard
    -----------------------------------------------------------------------


    Psi4 started on: Thu Jun 16 13:52:24 2016

    Process ID:   3932
    PSI4DATADIR: /home/avcopan/Documents/code/github/psi4/share
    Memory level set to 256.000 MB

  ==> Input File <==

--------------------------------------------------------------------------
memory 250 mb

molecule {
  O    0.000000000000    0.000000000000   -0.072446541927
  H    0.000000000000   -0.756052211872    0.574889596769
  H   -0.000000000000    0.756052211872    0.574889596769
}

set basis sto-3g
energy('scf')
--------------------------------------------------------------------------

  Memory set to 250.000 MiB by Python script.
    There are an even number of electrons - assuming singlet.
    Specify the multiplicity in the molecule input block.


*** tstart() called on knut
*** at Thu Jun 16 13:52:25 2016


         ---------------------------------------------------------
                                   SCF
            by Justin Turney, Rob Parrish, and Andy Simmonett
                              RHF Reference
                        1 Threads,    250 MiB Core
         ---------------------------------------------------------

  ==> Geometry <==

    Molecular point group: c2v
    Full point group: C2v

    Geometry (in Angstrom), charge = 0, multiplicity = 1:

       Center              X                  Y                   Z               Mass       
    ------------   -----------------  -----------------  -----------------  -----------------
           O          0.000000000000     0.000000000000    -0.072446541927    15.994914619560
           H          0.000000000000    -0.756052211872     0.574889596769     1.007825032070
           H         -0.000000000000     0.756052211872     0.574889596769     1.007825032070

  Running in c2v symmetry.

  Rotational constants: A =     22.47331  B =     14.63113  C =      8.86174 [cm^-1]
  Rotational constants: A = 673732.90178  B = 438630.15243  C = 265668.26747 [MHz]
  Nuclear repulsion =    8.856619559831856

  Charge       = 0
  Multiplicity = 1
  Electrons    = 10
  Nalpha       = 5
  Nbeta        = 5

  ==> Algorithm <==

  SCF Algorithm Type is DF.
  DIIS enabled.
  MOM disabled.
  Fractional occupation disabled.
  Guess Type is CORE.
  Energy threshold   = 1.00e-06
  Density threshold  = 1.00e-06
  Integral threshold = 0.00e+00

  ==> Primary Basis <==

  Basis Set: STO-3G
    Number of shells: 5
    Number of basis function: 7
    Number of Cartesian functions: 7
    Spherical Harmonics?: true
    Max angular momentum: 1

  ==> Pre-Iterations <==

   -------------------------------------------------------
    Irrep   Nso     Nmo     Nalpha   Nbeta   Ndocc  Nsocc
   -------------------------------------------------------
     A1         4       4       0       0       0       0
     A2         0       0       0       0       0       0
     B1         1       1       0       0       0       0
     B2         2       2       0       0       0       0
   -------------------------------------------------------
    Total       7       7       5       5       5       0
   -------------------------------------------------------

  ==> Integral Setup <==

  ==> DFJK: Density-Fitted J/K Matrices <==

    J tasked:                  Yes
    K tasked:                  Yes
    wK tasked:                  No
    OpenMP threads:              1
    Integrals threads:           1
    Memory (MB):               178
    Algorithm:                Core
    Integral Cache:           NONE
    Schwarz Cutoff:          1E-12
    Fitting Condition:       1E-12

   => Auxiliary Basis Set <=

  Basis Set: 
    Number of shells: 30
    Number of basis function: 84
    Number of Cartesian functions: 96
    Spherical Harmonics?: true
    Max angular momentum: 3

  Minimum eigenvalue in the overlap matrix is 3.6709899371E-01.
  Using Symmetric Orthogonalization.
  SCF Guess: Core (One-Electron) Hamiltonian.

  ==> Iterations <==

                           Total Energy        Delta E     RMS |[F,P]|

   @DF-RHF iter   1:   -73.24201698482236   -7.32420e+01   2.15648e-01 
   @DF-RHF iter   2:   -74.92648452601254   -1.68447e+00   4.75780e-02 DIIS
   @DF-RHF iter   3:   -74.96478029020237   -3.82958e-02   8.17830e-03 DIIS
   @DF-RHF iter   4:   -74.96619516493540   -1.41487e-03   1.42507e-03 DIIS
   @DF-RHF iter   5:   -74.96625279554183   -5.76306e-05   4.03080e-04 DIIS
   @DF-RHF iter   6:   -74.96625809047545   -5.29493e-06   3.72071e-05 DIIS
   @DF-RHF iter   7:   -74.96625813173235   -4.12569e-08   1.83264e-08 DIIS

  ==> Post-Iterations <==

    Orbital Energies (a.u.)
    -----------------------

    Doubly Occupied:                                                      

       1A1   -20.254242     2A1    -1.255980     1B2    -0.588879  
       3A1    -0.461688     1B1    -0.393080  

    Virtual:                                                              

       4A1     0.578043     2B2     0.683162  

    Final Occupation by Irrep:
             A1    A2    B1    B2 
    DOCC [     3,    0,    1,    1 ]

  Energy converged.

  @DF-RHF Final Energy:   -74.96625813173235

   => Energetics <=

    Nuclear Repulsion Energy =              8.8566195598318558
    One-Electron Energy =                -121.7380163584444688
    Two-Electron Energy =                  37.9151386668802814
    DFT Exchange-Correlation Energy =       0.0000000000000000
    Empirical Dispersion Energy =           0.0000000000000000
    PCM Polarization Energy =               0.0000000000000000
    EFP Energy =                            0.0000000000000000
    Total Energy =                        -74.9662581317323315


  Saving occupied orbitals to File 180.

*** tstop() called on knut at Thu Jun 16 13:52:25 2016
Module time:
	user time   =       0.07 seconds =       0.00 minutes
	system time =       0.13 seconds =       0.00 minutes
	total time  =          0 seconds =       0.00 minutes
Total time:
	user time   =       0.07 seconds =       0.00 minutes
	system time =       0.13 seconds =       0.00 minutes
	total time  =          0 seconds =       0.00 minutes


Properties will be evaluated at   0.000000,   0.000000,   0.000000 Bohr

Properties computed using the SCF density matrix

  Nuclear Dipole Moment: (a.u.)
     X:     0.0000      Y:     0.0000      Z:     1.0775

  Electronic Dipole Moment: (a.u.)
     X:     0.0000      Y:     0.0000      Z:    -0.4058

  Dipole Moment: (a.u.)
     X:     0.0000      Y:     0.0000      Z:     0.6717     Total:     0.6717

  Dipole Moment: (Debye)
     X:     0.0000      Y:     0.0000      Z:     1.7073     Total:     1.7073


*** Psi4 exiting successfully. Buy a developer a beer!
