
    -----------------------------------------------------------------------
          Psi4: An Open-Source Ab Initio Electronic Structure Package
                               Psi4 1.4a2.dev478 

                         Git: Rev {master} f722895 dirty


    R. M. Parrish, L. A. Burns, D. G. A. Smith, A. C. Simmonett,
    A. E. DePrince III, E. G. Hohenstein, U. Bozkaya, A. Yu. Sokolov,
    R. Di Remigio, R. M. Richard, J. F. Gonthier, A. M. James,
    H. R. McAlexander, A. Kumar, M. Saitow, X. Wang, B. P. Pritchard,
    P. Verma, H. F. Schaefer III, K. Patkowski, R. A. King, E. F. Valeev,
    F. A. Evangelista, J. M. Turney, T. D. Crawford, and C. D. Sherrill,
    J. Chem. Theory Comput. 13(7) pp 3185--3197 (2017).
    (doi: 10.1021/acs.jctc.7b00174)


                         Additional Contributions by
    P. Kraus, H. Kruse, M. H. Lechner, M. C. Schieber, R. A. Shaw,
    A. Alenaizan, R. Galvelis, Z. L. Glick, S. Lehtola, and J. P. Misiewicz

    -----------------------------------------------------------------------


    Psi4 started on: Monday, 08 June 2020 12:47PM

    Process ID: 22239
    Host:       n085
    PSIDATADIR: /opt/psi/4/master/share/psi4
    Memory:     500.0 MiB
    Threads:    4
    
  ==> Input File <==

--------------------------------------------------------------------------
set memory 40Gb

molecule {
    C   -1.173364167503   -0.774741425217   -0.000123525603
    H   -1.618801240903   -1.211408471017   -0.890664532703
    H   -1.618878279803   -1.211597844517    0.890286003997
    C   -1.173481847603    0.775100543037    0.000042961579
    H   -1.619354961860    1.210499876935    0.890550741975
    H   -1.619305197543    1.210688018215   -0.890396858525
    C    0.354585847646    0.920558912769    0.000099594197
    H    0.839009542161    1.891670958813    0.000209215999
    O    0.765256772530    0.000111732263   -1.025539963326
    C    0.355201007357   -0.920807556203   -0.000073887048
    H    0.840278289275   -1.891592234213   -0.000153792516
    O    0.765185836103   -0.000084997745    1.025591781574
}

set {
    e_convergence 10
    d_convergence 10
    freeze_core True
    basis_guess True
    cc_type conv
    maxiter 300
}

E = energy('mp2/heavy-aug-cc-pV(Q+d)Z')
psi4.print_out("\n========================OPTAVC-XTPL==========================\n\n")
psi4.print_out("MP2/QZ correlation energy {}\n".format(variable("MP2 CORRELATION ENERGY")))
psi4.print_out("SCF/QZ reference energy {}\n".format(variable("CURRENT REFERENCE ENERGY")))
psi4.print_out("\n\n=============================================================\n")

E = energy('mp2/heavy-aug-cc-pV(T+d)Z')
psi4.print_out("\n========================OPTAVC-XTPL==========================\n\n")
psi4.print_out("MP2/TZ correlation energy {}".format(variable("MP2 CORRELATION ENERGY")))
psi4.print_out("\n\n=============================================================\n")
--------------------------------------------------------------------------

Scratch directory: /tmp/

Scratch directory: /tmp/
    SCF Algorithm Type (re)set to DF.

*** tstart() called on n085
*** at Mon Jun  8 12:47:35 2020


  //>>>>>>>>>>>>>>>>>>>>>>>>>>>>>>>>>>>//
  //      Guess SCF, pcseg-0 Basis     //
  //<<<<<<<<<<<<<<<<<<<<<<<<<<<<<<<<<<<//

   => Loading Basis Set <=

    Name: PCSEG-0
    Role: ORBITAL
    Keyword: BASIS
    atoms 1, 4, 7, 10     entry C          line    71 file /opt/psi/4/master/share/psi4/basis/pcseg-0.gbs 
    atoms 2-3, 5-6, 8, 11 entry H          line    13 file /opt/psi/4/master/share/psi4/basis/pcseg-0.gbs 
    atoms 9, 12           entry O          line   103 file /opt/psi/4/master/share/psi4/basis/pcseg-0.gbs 


         ---------------------------------------------------------
                           SCF Castup computation                  
         ---------------------------------------------------------
                                   SCF
               by Justin Turney, Rob Parrish, Andy Simmonett
                          and Daniel G. A. Smith
                              RHF Reference
                        4 Threads,    500 MiB Core
         ---------------------------------------------------------

  ==> Geometry <==

    Molecular point group: c1
    Full point group: C1

    Geometry (in Angstrom), charge = 0, multiplicity = 1:

       Center              X                  Y                   Z               Mass       
    ------------   -----------------  -----------------  -----------------  -----------------
         C           -1.173364167503    -0.774741425217    -0.000123525603    12.000000000000
         H           -1.618801240903    -1.211408471017    -0.890664532703     1.007825032230
         H           -1.618878279803    -1.211597844517     0.890286003997     1.007825032230
         C           -1.173481847603     0.775100543037     0.000042961579    12.000000000000
         H           -1.619354961860     1.210499876935     0.890550741975     1.007825032230
         H           -1.619305197543     1.210688018215    -0.890396858525     1.007825032230
         C            0.354585847646     0.920558912769     0.000099594197    12.000000000000
         H            0.839009542161     1.891670958813     0.000209215999     1.007825032230
         O            0.765256772530     0.000111732263    -1.025539963326    15.994914619570
         C            0.355201007357    -0.920807556203    -0.000073887048    12.000000000000
         H            0.840278289275    -1.891592234213    -0.000153792516     1.007825032230
         O            0.765185836103    -0.000084997745     1.025591781574    15.994914619570

  Running in c1 symmetry.

  Rotational constants: A =      0.19897  B =      0.16267  C =      0.14701 [cm^-1]
  Rotational constants: A =   5965.01332  B =   4876.62887  C =   4407.22139 [MHz]
  Nuclear repulsion =  257.284336028895495

  Charge       = 0
  Multiplicity = 1
  Electrons    = 46
  Nalpha       = 23
  Nbeta        = 23

  ==> Algorithm <==

  SCF Algorithm Type is DF.
  DIIS enabled.
  MOM disabled.
  Fractional occupation disabled.
  Guess Type is SAD.
  Energy threshold   = 1.00e-10
  Density threshold  = 1.00e-10
  Integral threshold = 0.00e+00

  ==> Primary Basis <==

  Basis Set: PCSEG-0
    Blend: PCSEG-0
    Number of shells: 42
    Number of basis function: 66
    Number of Cartesian functions: 66
    Spherical Harmonics?: true
    Max angular momentum: 1

   => Loading Basis Set <=

    Name: (PCSEG-0 AUX)
    Role: JKFIT
    Keyword: DF_BASIS_SCF
    atoms 1, 4, 7, 10     entry C          line   198 file /opt/psi/4/master/share/psi4/basis/def2-universal-jkfit.gbs 
    atoms 2-3, 5-6, 8, 11 entry H          line    18 file /opt/psi/4/master/share/psi4/basis/def2-universal-jkfit.gbs 
    atoms 9, 12           entry O          line   318 file /opt/psi/4/master/share/psi4/basis/def2-universal-jkfit.gbs 

  ==> Integral Setup <==

  ==> DiskDFJK: Density-Fitted J/K Matrices <==

    J tasked:                  Yes
    K tasked:                  Yes
    wK tasked:                  No
    OpenMP threads:              4
    Integrals threads:           4
    Memory [MiB]:              375
    Algorithm:                Core
    Integral Cache:           NONE
    Schwarz Cutoff:          1E-12
    Fitting Condition:       1E-10

   => Auxiliary Basis Set <=

  Basis Set: (PCSEG-0 AUX)
    Blend: DEF2-UNIVERSAL-JKFIT
    Number of shells: 186
    Number of basis function: 562
    Number of Cartesian functions: 662
    Spherical Harmonics?: true
    Max angular momentum: 4

  Minimum eigenvalue in the overlap matrix is 1.2848895170E-03.
  Reciprocal condition number of the overlap matrix is 2.1204646358E-04.
    Using symmetric orthogonalization.

  ==> Pre-Iterations <==

  SCF Guess: Superposition of Atomic Densities via on-the-fly atomic UHF (no occupation information).

   -------------------------
    Irrep   Nso     Nmo    
   -------------------------
     A         66      66 
   -------------------------
    Total      66      66
   -------------------------

  ==> Iterations <==

                           Total Energy        Delta E     RMS |[F,P]|

   @DF-RHF iter SAD:  -303.71989586726369   -3.03720e+02   0.00000e+00 
   @DF-RHF iter   1:  -303.56550544138423    1.54390e-01   7.23108e-03 DIIS
   @DF-RHF iter   2:  -303.66451764834056   -9.90122e-02   3.93897e-03 DIIS
   @DF-RHF iter   3:  -303.68977357957624   -2.52559e-02   6.16840e-04 DIIS
   @DF-RHF iter   4:  -303.69094523843495   -1.17166e-03   1.94591e-04 DIIS
   @DF-RHF iter   5:  -303.69103894158633   -9.37032e-05   4.08288e-05 DIIS
   @DF-RHF iter   6:  -303.69104641970227   -7.47812e-06   8.29792e-06 DIIS
   @DF-RHF iter   7:  -303.69104681423187   -3.94530e-07   1.67291e-06 DIIS
   @DF-RHF iter   8:  -303.69104682789356   -1.36617e-08   5.34753e-07 DIIS
   @DF-RHF iter   9:  -303.69104682926746   -1.37391e-09   1.06315e-07 DIIS
   @DF-RHF iter  10:  -303.69104682933909   -7.16227e-11   1.80647e-08 DIIS
   @DF-RHF iter  11:  -303.69104682934096   -1.87583e-12   2.72357e-09 DIIS
   @DF-RHF iter  12:  -303.69104682934119   -2.27374e-13   6.75559e-10 DIIS
   @DF-RHF iter  13:  -303.69104682934113    5.68434e-14   2.52208e-10 DIIS
   @DF-RHF iter  14:  -303.69104682934113    0.00000e+00   6.06002e-11 DIIS
  Energy and wave function converged.


  ==> Post-Iterations <==

    Orbital Energies [Eh]
    ---------------------

    Doubly Occupied:                                                      

       1A    -20.584705     2A    -20.584641     3A    -11.369482  
       4A    -11.369454     5A    -11.255711     6A    -11.255307  
       7A     -1.541103     8A     -1.314917     9A     -1.091342  
      10A     -1.009225    11A     -0.822025    12A     -0.789655  
      13A     -0.768969    14A     -0.682156    15A     -0.662595  
      16A     -0.660560    17A     -0.552704    18A     -0.534331  
      19A     -0.528067    20A     -0.524561    21A     -0.519370  
      22A     -0.467833    23A     -0.442503  

    Virtual:                                                              

      24A      0.203348    25A      0.231931    26A      0.236261  
      27A      0.242130    28A      0.253919    29A      0.267577  
      30A      0.315040    31A      0.350766    32A      0.351410  
      33A      0.384117    34A      0.406803    35A      0.467117  
      36A      0.571399    37A      0.796108    38A      0.805427  
      39A      0.820935    40A      0.925134    41A      0.933230  
      42A      0.945926    43A      0.950785    44A      1.003726  
      45A      1.005191    46A      1.031125    47A      1.060973  
      48A      1.071971    49A      1.134849    50A      1.149228  
      51A      1.170443    52A      1.174010    53A      1.210818  
      54A      1.238464    55A      1.423284    56A      1.454738  
      57A      1.483676    58A      1.522831    59A      1.692070  
      60A      1.706579    61A      1.927941    62A      1.952173  
      63A      2.141270    64A      2.299780    65A      2.375814  
      66A      2.444130  

    Final Occupation by Irrep:
              A 
    DOCC [    23 ]

  @DF-RHF Final Energy:  -303.69104682934113

   => Energetics <=

    Nuclear Repulsion Energy =            257.2843360288954955
    One-Electron Energy =                -923.2883331961273825
    Two-Electron Energy =                 362.3129503378907543
    Total Energy =                       -303.6910468293411327

Computation Completed

  //>>>>>>>>>>>>>>>>>>>>>>>>>>>>>>>>>>>//
  //                SCF                //
  //<<<<<<<<<<<<<<<<<<<<<<<<<<<<<<<<<<<//

   => Loading Basis Set <=

    Name: HEAVY-AUG-CC-PV(Q+D)Z
    Role: ORBITAL
    Keyword: BASIS
    atoms 1, 4, 7, 10     entry C          line   333 file /opt/psi/4/master/share/psi4/basis/heavy-aug-cc-pv_qpd_z.gbs 
    atoms 2-3, 5-6, 8, 11 entry H          line    86 file /opt/psi/4/master/share/psi4/basis/heavy-aug-cc-pv_qpd_z.gbs 
    atoms 9, 12           entry O          line   453 file /opt/psi/4/master/share/psi4/basis/heavy-aug-cc-pv_qpd_z.gbs 


         ---------------------------------------------------------
                                   SCF
               by Justin Turney, Rob Parrish, Andy Simmonett
                          and Daniel G. A. Smith
                              RHF Reference
                        4 Threads,    500 MiB Core
         ---------------------------------------------------------

  ==> Geometry <==

    Molecular point group: c1
    Full point group: C1

    Geometry (in Angstrom), charge = 0, multiplicity = 1:

       Center              X                  Y                   Z               Mass       
    ------------   -----------------  -----------------  -----------------  -----------------
         C           -1.173364167503    -0.774741425217    -0.000123525603    12.000000000000
         H           -1.618801240903    -1.211408471017    -0.890664532703     1.007825032230
         H           -1.618878279803    -1.211597844517     0.890286003997     1.007825032230
         C           -1.173481847603     0.775100543037     0.000042961579    12.000000000000
         H           -1.619354961860     1.210499876935     0.890550741975     1.007825032230
         H           -1.619305197543     1.210688018215    -0.890396858525     1.007825032230
         C            0.354585847646     0.920558912769     0.000099594197    12.000000000000
         H            0.839009542161     1.891670958813     0.000209215999     1.007825032230
         O            0.765256772530     0.000111732263    -1.025539963326    15.994914619570
         C            0.355201007357    -0.920807556203    -0.000073887048    12.000000000000
         H            0.840278289275    -1.891592234213    -0.000153792516     1.007825032230
         O            0.765185836103    -0.000084997745     1.025591781574    15.994914619570

  Running in c1 symmetry.

  Rotational constants: A =      0.19897  B =      0.16267  C =      0.14701 [cm^-1]
  Rotational constants: A =   5965.01332  B =   4876.62887  C =   4407.22139 [MHz]
  Nuclear repulsion =  257.284336028895495

  Charge       = 0
  Multiplicity = 1
  Electrons    = 46
  Nalpha       = 23
  Nbeta        = 23

  ==> Algorithm <==

  SCF Algorithm Type is DF.
  DIIS enabled.
  MOM disabled.
  Fractional occupation disabled.
  Guess Type is SAD.
  Energy threshold   = 1.00e-10
  Density threshold  = 1.00e-10
  Integral threshold = 0.00e+00

  ==> Primary Basis <==

  Basis Set: HEAVY-AUG-CC-PV(Q+D)Z
    Blend: HEAVY-AUG-CC-PV(Q+D)Z
    Number of shells: 180
    Number of basis function: 660
    Number of Cartesian functions: 840
    Spherical Harmonics?: true
    Max angular momentum: 4

   => Loading Basis Set <=

    Name: (HEAVY-AUG-CC-PV(Q+D)Z AUX)
    Role: JKFIT
    Keyword: DF_BASIS_SCF
    atoms 1, 4, 7, 10     entry C          line   214 file /opt/psi/4/master/share/psi4/basis/heavy-aug-cc-pvqz-jkfit.gbs 
    atoms 2-3, 5-6, 8, 11 entry H          line   116 file /opt/psi/4/master/share/psi4/basis/heavy-aug-cc-pvqz-jkfit.gbs 
    atoms 9, 12           entry O          line   354 file /opt/psi/4/master/share/psi4/basis/heavy-aug-cc-pvqz-jkfit.gbs 


  Computing basis projection from PCSEG-0 to HEAVY-AUG-CC-PV(Q+D)Z

  ==> Integral Setup <==

  ==> DiskDFJK: Density-Fitted J/K Matrices <==

    J tasked:                  Yes
    K tasked:                  Yes
    wK tasked:                  No
    OpenMP threads:              4
    Integrals threads:           4
    Memory [MiB]:              375
    Algorithm:                Disk
    Integral Cache:           NONE
    Schwarz Cutoff:          1E-12
    Fitting Condition:       1E-10

   => Auxiliary Basis Set <=

  Basis Set: (HEAVY-AUG-CC-PV(Q+D)Z AUX)
    Blend: HEAVY-AUG-CC-PVQZ-JKFIT
    Number of shells: 282
    Number of basis function: 1158
    Number of Cartesian functions: 1584
    Spherical Harmonics?: true
    Max angular momentum: 5

  Minimum eigenvalue in the overlap matrix is 1.0855826647E-06.
  Reciprocal condition number of the overlap matrix is 6.9583421261E-08.
    Using symmetric orthogonalization.

  ==> Pre-Iterations <==

  SCF Guess: Orbitals guess was supplied from a previous computation.

   -------------------------
    Irrep   Nso     Nmo    
   -------------------------
     A        660     660 
   -------------------------
    Total     660     660
   -------------------------

  ==> Iterations <==

                           Total Energy        Delta E     RMS |[F,P]|

   @DF-RHF iter   0:  -304.22169679299759   -3.04222e+02   4.48372e-03 
   @DF-RHF iter   1:  -304.73413727343626   -5.12440e-01   3.37620e-04 DIIS
   @DF-RHF iter   2:  -304.75021098994478   -1.60737e-02   1.54184e-04 DIIS
   @DF-RHF iter   3:  -304.75410257112441   -3.89158e-03   2.80698e-05 DIIS
   @DF-RHF iter   4:  -304.75437844055557   -2.75869e-04   8.34043e-06 DIIS
   @DF-RHF iter   5:  -304.75440043405183   -2.19935e-05   3.53048e-06 DIIS
   @DF-RHF iter   6:  -304.75440410627039   -3.67222e-06   8.36772e-07 DIIS
   @DF-RHF iter   7:  -304.75440440816283   -3.01892e-07   1.77971e-07 DIIS
   @DF-RHF iter   8:  -304.75440442285424   -1.46914e-08   4.54298e-08 DIIS
   @DF-RHF iter   9:  -304.75440442392267   -1.06843e-09   1.48164e-08 DIIS
   @DF-RHF iter  10:  -304.75440442400907   -8.64020e-11   3.76799e-09 DIIS
   @DF-RHF iter  11:  -304.75440442401714   -8.07177e-12   9.61081e-10 DIIS
   @DF-RHF iter  12:  -304.75440442401748   -3.41061e-13   2.76680e-10 DIIS
   @DF-RHF iter  13:  -304.75440442401907   -1.59162e-12   4.54264e-11 DIIS
  Energy and wave function converged.


  ==> Post-Iterations <==

    Orbital Energies [Eh]
    ---------------------

    Doubly Occupied:                                                      

       1A    -20.565212     2A    -20.565175     3A    -11.348244  
       4A    -11.348212     5A    -11.236122     6A    -11.235549  
       7A     -1.493927     8A     -1.293900     9A     -1.066895  
      10A     -0.988175    11A     -0.810340    12A     -0.789076  
      13A     -0.747307    14A     -0.673878    15A     -0.653351  
      16A     -0.646204    17A     -0.534956    18A     -0.525264  
      19A     -0.519307    20A     -0.511707    21A     -0.509891  
      22A     -0.460471    23A     -0.432808  

    Virtual:                                                              

      24A      0.041498    25A      0.042898    26A      0.050612  
      27A      0.062644    28A      0.063940    29A      0.079826  
      30A      0.080117    31A      0.083449    32A      0.101451  
      33A      0.110268    34A      0.111704    35A      0.112241  
      36A      0.139416    37A      0.151705    38A      0.166358  
      39A      0.171491    40A      0.178402    41A      0.178835  
      42A      0.188708    43A      0.189004    44A      0.199130  
      45A      0.207299    46A      0.226421    47A      0.227180  
      48A      0.229894    49A      0.257501    50A      0.261165  
      51A      0.270426    52A      0.271034    53A      0.272232  
      54A      0.286765    55A      0.288176    56A      0.291240  
      57A      0.301190    58A      0.316684    59A      0.319926  
      60A      0.325298    61A      0.333564    62A      0.337777  
      63A      0.356186    64A      0.358196    65A      0.369605  
      66A      0.381146    67A      0.388171    68A      0.389951  
      69A      0.391814    70A      0.392037    71A      0.396846  
      72A      0.398808    73A      0.412751    74A      0.420470  
      75A      0.420930    76A      0.440208    77A      0.453039  
      78A      0.456360    79A      0.463645    80A      0.495268  
      81A      0.515802    82A      0.518886    83A      0.523132  
      84A      0.528345    85A      0.550546    86A      0.572194  
      87A      0.574837    88A      0.585411    89A      0.589522  
      90A      0.598755    91A      0.600385    92A      0.613620  
      93A      0.629349    94A      0.641575    95A      0.654474  
      96A      0.659712    97A      0.685344    98A      0.689027  
      99A      0.695950   100A      0.704867   101A      0.716152  
     102A      0.717625   103A      0.733200   104A      0.743962  
     105A      0.758444   106A      0.765032   107A      0.790090  
     108A      0.790885   109A      0.794135   110A      0.795712  
     111A      0.827648   112A      0.832128   113A      0.833242  
     114A      0.849330   115A      0.860575   116A      0.875849  
     117A      0.884596   118A      0.897272   119A      0.920184  
     120A      0.938971   121A      0.947821   122A      0.958573  
     123A      0.961121   124A      0.987984   125A      1.002351  
     126A      1.010060   127A      1.011577   128A      1.016226  
     129A      1.034130   130A      1.035162   131A      1.046980  
     132A      1.061915   133A      1.070294   134A      1.075483  
     135A      1.096882   136A      1.114766   137A      1.128790  
     138A      1.140481   139A      1.154532   140A      1.159504  
     141A      1.160640   142A      1.166570   143A      1.168347  
     144A      1.176481   145A      1.191293   146A      1.198354  
     147A      1.209206   148A      1.222023   149A      1.229972  
     150A      1.234974   151A      1.238278   152A      1.239577  
     153A      1.245956   154A      1.276356   155A      1.276937  
     156A      1.288302   157A      1.288681   158A      1.306490  
     159A      1.314882   160A      1.328314   161A      1.371089  
     162A      1.371793   163A      1.408427   164A      1.409592  
     165A      1.436653   166A      1.442780   167A      1.459062  
     168A      1.469992   169A      1.475442   170A      1.486092  
     171A      1.491087   172A      1.508714   173A      1.525607  
     174A      1.535075   175A      1.544016   176A      1.593844  
     177A      1.594736   178A      1.618479   179A      1.621045  
     180A      1.625721   181A      1.626162   182A      1.647619  
     183A      1.683191   184A      1.687159   185A      1.699338  
     186A      1.723910   187A      1.728198   188A      1.731981  
     189A      1.756775   190A      1.776045   191A      1.776491  
     192A      1.814655   193A      1.866408   194A      1.871617  
     195A      1.886455   196A      1.900293   197A      1.911493  
     198A      1.925029   199A      1.960678   200A      1.968918  
     201A      1.997378   202A      1.997826   203A      2.018156  
     204A      2.025424   205A      2.027329   206A      2.027404  
     207A      2.033434   208A      2.039488   209A      2.044492  
     210A      2.106714   211A      2.116222   212A      2.125693  
     213A      2.142362   214A      2.144089   215A      2.174062  
     216A      2.188566   217A      2.188744   218A      2.209936  
     219A      2.250748   220A      2.259414   221A      2.266877  
     222A      2.294156   223A      2.295949   224A      2.306909  
     225A      2.336522   226A      2.341593   227A      2.359993  
     228A      2.363156   229A      2.366593   230A      2.374151  
     231A      2.389684   232A      2.397169   233A      2.404362  
     234A      2.419495   235A      2.442028   236A      2.444003  
     237A      2.461512   238A      2.485800   239A      2.492933  
     240A      2.517774   241A      2.526611   242A      2.534340  
     243A      2.548776   244A      2.559867   245A      2.585988  
     246A      2.588731   247A      2.621399   248A      2.629175  
     249A      2.634426   250A      2.646170   251A      2.661774  
     252A      2.682707   253A      2.704668   254A      2.715293  
     255A      2.731156   256A      2.731446   257A      2.752297  
     258A      2.764303   259A      2.765514   260A      2.800809  
     261A      2.804289   262A      2.811342   263A      2.833354  
     264A      2.859619   265A      2.867365   266A      2.920734  
     267A      2.936399   268A      2.942411   269A      2.967520  
     270A      2.975882   271A      2.986946   272A      2.988912  
     273A      3.009183   274A      3.032505   275A      3.042055  
     276A      3.049251   277A      3.075486   278A      3.078295  
     279A      3.083822   280A      3.104920   281A      3.110139  
     282A      3.136762   283A      3.144492   284A      3.154419  
     285A      3.170747   286A      3.187848   287A      3.224656  
     288A      3.248668   289A      3.259609   290A      3.269171  
     291A      3.289801   292A      3.294879   293A      3.320164  
     294A      3.362417   295A      3.367180   296A      3.396105  
     297A      3.399672   298A      3.403990   299A      3.432325  
     300A      3.454276   301A      3.465411   302A      3.476096  
     303A      3.501809   304A      3.523165   305A      3.535631  
     306A      3.549756   307A      3.572353   308A      3.598608  
     309A      3.610540   310A      3.618183   311A      3.637046  
     312A      3.661489   313A      3.691650   314A      3.706378  
     315A      3.716806   316A      3.747821   317A      3.752904  
     318A      3.756921   319A      3.806063   320A      3.835473  
     321A      3.843696   322A      3.844396   323A      3.874557  
     324A      3.908931   325A      3.909362   326A      3.918115  
     327A      3.951166   328A      3.962928   329A      3.983466  
     330A      4.042111   331A      4.043181   332A      4.048847  
     333A      4.061419   334A      4.085898   335A      4.099756  
     336A      4.119979   337A      4.135882   338A      4.157057  
     339A      4.172734   340A      4.202895   341A      4.205860  
     342A      4.218511   343A      4.239268   344A      4.245565  
     345A      4.273964   346A      4.293072   347A      4.317306  
     348A      4.332158   349A      4.337789   350A      4.359204  
     351A      4.406405   352A      4.429362   353A      4.441265  
     354A      4.453727   355A      4.463293   356A      4.489550  
     357A      4.497709   358A      4.512243   359A      4.518923  
     360A      4.540975   361A      4.570512   362A      4.594139  
     363A      4.629502   364A      4.655108   365A      4.671495  
     366A      4.693710   367A      4.697132   368A      4.701024  
     369A      4.716766   370A      4.739980   371A      4.753108  
     372A      4.762084   373A      4.789082   374A      4.826369  
     375A      4.826596   376A      4.827743   377A      4.845579  
     378A      4.850190   379A      4.904052   380A      4.942898  
     381A      4.979343   382A      5.002496   383A      5.003236  
     384A      5.024914   385A      5.059828   386A      5.123742  
     387A      5.159105   388A      5.167521   389A      5.184063  
     390A      5.239716   391A      5.248848   392A      5.252778  
     393A      5.278661   394A      5.292834   395A      5.306161  
     396A      5.344275   397A      5.360153   398A      5.379522  
     399A      5.410904   400A      5.492914   401A      5.516028  
     402A      5.557073   403A      5.586182   404A      5.630431  
     405A      5.651738   406A      5.652478   407A      5.671332  
     408A      5.786349   409A      5.826090   410A      5.831811  
     411A      5.839086   412A      5.901169   413A      5.974208  
     414A      6.032544   415A      6.103552   416A      6.140886  
     417A      6.192117   418A      6.215620   419A      6.229847  
     420A      6.238338   421A      6.293434   422A      6.336401  
     423A      6.340014   424A      6.346496   425A      6.367264  
     426A      6.398022   427A      6.420179   428A      6.459236  
     429A      6.491006   430A      6.496208   431A      6.512606  
     432A      6.522579   433A      6.533811   434A      6.579458  
     435A      6.586137   436A      6.613901   437A      6.639881  
     438A      6.646494   439A      6.654940   440A      6.681447  
     441A      6.700597   442A      6.702943   443A      6.717827  
     444A      6.750323   445A      6.768036   446A      6.782958  
     447A      6.815565   448A      6.820975   449A      6.855653  
     450A      6.887230   451A      6.912416   452A      6.915109  
     453A      6.922327   454A      6.924065   455A      6.940399  
     456A      6.977407   457A      6.990064   458A      7.010639  
     459A      7.040816   460A      7.092553   461A      7.102639  
     462A      7.107152   463A      7.133618   464A      7.154970  
     465A      7.179890   466A      7.193877   467A      7.198984  
     468A      7.219508   469A      7.222249   470A      7.250672  
     471A      7.277434   472A      7.305543   473A      7.355404  
     474A      7.361599   475A      7.368664   476A      7.419256  
     477A      7.431824   478A      7.438725   479A      7.470776  
     480A      7.531190   481A      7.542373   482A      7.592891  
     483A      7.600740   484A      7.603712   485A      7.637298  
     486A      7.711455   487A      7.731838   488A      7.743791  
     489A      7.752719   490A      7.782857   491A      7.808786  
     492A      7.834263   493A      7.846213   494A      7.846411  
     495A      7.918442   496A      7.939573   497A      7.947127  
     498A      7.987174   499A      7.996446   500A      8.017530  
     501A      8.017687   502A      8.046055   503A      8.086333  
     504A      8.108637   505A      8.149040   506A      8.156314  
     507A      8.194671   508A      8.195506   509A      8.324200  
     510A      8.329867   511A      8.337860   512A      8.352972  
     513A      8.380620   514A      8.413337   515A      8.415034  
     516A      8.480795   517A      8.500274   518A      8.500757  
     519A      8.530907   520A      8.553296   521A      8.559374  
     522A      8.588351   523A      8.610501   524A      8.612902  
     525A      8.649028   526A      8.689287   527A      8.708182  
     528A      8.716894   529A      8.764312   530A      8.814908  
     531A      8.827692   532A      8.839786   533A      8.840190  
     534A      8.843090   535A      8.882007   536A      8.900707  
     537A      8.911716   538A      8.937851   539A      8.956966  
     540A      8.995950   541A      9.016173   542A      9.027893  
     543A      9.035411   544A      9.048176   545A      9.057659  
     546A      9.085136   547A      9.110208   548A      9.116977  
     549A      9.172094   550A      9.177792   551A      9.190428  
     552A      9.234070   553A      9.249725   554A      9.314273  
     555A      9.342650   556A      9.352301   557A      9.353258  
     558A      9.366936   559A      9.400778   560A      9.451267  
     561A      9.495705   562A      9.511126   563A      9.526575  
     564A      9.556962   565A      9.650118   566A      9.658604  
     567A      9.727316   568A      9.758119   569A      9.767343  
     570A      9.792574   571A      9.834574   572A      9.898267  
     573A      9.921222   574A      9.930367   575A      9.960569  
     576A     10.068997   577A     10.116034   578A     10.233953  
     579A     10.240869   580A     10.258245   581A     10.293850  
     582A     10.418392   583A     10.479251   584A     10.506872  
     585A     10.507918   586A     10.593048   587A     10.628364  
     588A     10.643555   589A     10.782049   590A     10.793948  
     591A     10.823907   592A     10.827113   593A     10.971892  
     594A     11.002943   595A     11.062062   596A     11.074736  
     597A     11.101333   598A     11.107267   599A     11.135629  
     600A     11.153649   601A     11.166575   602A     11.212420  
     603A     11.227981   604A     11.253811   605A     11.338097  
     606A     11.385169   607A     11.456319   608A     11.456502  
     609A     11.498813   610A     11.503221   611A     11.513300  
     612A     11.546404   613A     11.623030   614A     11.649191  
     615A     11.729174   616A     11.817452   617A     11.827731  
     618A     11.856124   619A     11.890205   620A     11.915268  
     621A     12.202947   622A     12.260000   623A     12.317363  
     624A     12.385933   625A     12.648012   626A     12.657462  
     627A     12.825229   628A     12.878048   629A     12.963297  
     630A     13.036819   631A     13.082747   632A     13.089268  
     633A     13.186849   634A     13.240692   635A     13.260045  
     636A     13.354410   637A     13.367845   638A     13.391091  
     639A     13.422465   640A     13.519902   641A     13.527796  
     642A     13.539386   643A     13.725875   644A     13.738935  
     645A     13.797783   646A     13.816560   647A     13.853494  
     648A     13.914711   649A     13.981452   650A     13.985708  
     651A     14.132923   652A     14.160118   653A     14.700438  
     654A     14.897905   655A     27.274127   656A     27.866554  
     657A     28.044584   658A     28.616378   659A     44.811511  
     660A     45.715887  

    Final Occupation by Irrep:
              A 
    DOCC [    23 ]

  @DF-RHF Final Energy:  -304.75440442401907

   => Energetics <=

    Nuclear Repulsion Energy =            257.2843360288954955
    One-Electron Energy =                -926.1655421687314629
    Two-Electron Energy =                 364.1268017158168959
    Total Energy =                       -304.7544044240190715

Computation Completed


Properties will be evaluated at   0.000000,   0.000000,   0.000000 [a0]

Properties computed using the SCF density matrix

  Nuclear Dipole Moment: [e a0]
     X:    -4.4897      Y:    -0.0016      Z:    -0.0002

  Electronic Dipole Moment: [e a0]
     X:     3.7307      Y:     0.0015      Z:     0.0001

  Dipole Moment: [e a0]
     X:    -0.7590      Y:    -0.0002      Z:    -0.0000     Total:     0.7590

  Dipole Moment: [D]
     X:    -1.9293      Y:    -0.0004      Z:    -0.0001     Total:     1.9293


*** tstop() called on n085 at Mon Jun  8 12:48:16 2020
Module time:
	user time   =     152.76 seconds =       2.55 minutes
	system time =       5.66 seconds =       0.09 minutes
	total time  =         41 seconds =       0.68 minutes
Total time:
	user time   =     152.76 seconds =       2.55 minutes
	system time =       5.66 seconds =       0.09 minutes
	total time  =         41 seconds =       0.68 minutes

*** tstart() called on n085
*** at Mon Jun  8 12:48:16 2020


  //>>>>>>>>>>>>>>>>>>>>>>>>>>>>>>>>>>>//
  //               DFMP2               //
  //<<<<<<<<<<<<<<<<<<<<<<<<<<<<<<<<<<<//

   => Loading Basis Set <=

    Name: (HEAVY-AUG-CC-PV(Q+D)Z AUX)
    Role: RIFIT
    Keyword: DF_BASIS_MP2
    atoms 1, 4, 7, 10     entry C          line   180 file /opt/psi/4/master/share/psi4/basis/heavy-aug-cc-pvqz-ri.gbs 
    atoms 2-3, 5-6, 8, 11 entry H          line    44 file /opt/psi/4/master/share/psi4/basis/heavy-aug-cc-pvqz-ri.gbs 
    atoms 9, 12           entry O          line   328 file /opt/psi/4/master/share/psi4/basis/heavy-aug-cc-pvqz-ri.gbs 

	 --------------------------------------------------------
	                          DF-MP2                         
	      2nd-Order Density-Fitted Moller-Plesset Theory     
	              RMP2 Wavefunction,   4 Threads             
	                                                         
	        Rob Parrish, Justin Turney, Andy Simmonett,      
	           Ed Hohenstein, and C. David Sherrill          
	 --------------------------------------------------------

   => Auxiliary Basis Set <=

  Basis Set: (HEAVY-AUG-CC-PV(Q+D)Z AUX)
    Blend: HEAVY-AUG-CC-PVQZ-RI
    Number of shells: 306
    Number of basis function: 1338
    Number of Cartesian functions: 1842
    Spherical Harmonics?: true
    Max angular momentum: 5

	 --------------------------------------------------------
	                 NBF =   660, NAUX =  1338
	 --------------------------------------------------------
	   CLASS    FOCC     OCC    AOCC    AVIR     VIR    FVIR
	   PAIRS       6      23      17     637     637       0
	 --------------------------------------------------------

	-----------------------------------------------------------
	 ==================> DF-MP2 Energies <==================== 
	-----------------------------------------------------------
	 Reference Energy          =    -304.7544044240190715 [Eh]
	 Singles Energy            =      -0.0000000000000000 [Eh]
	 Same-Spin Energy          =      -0.2940235880570908 [Eh]
	 Opposite-Spin Energy      =      -0.9234224085002327 [Eh]
	 Correlation Energy        =      -1.2174459965573234 [Eh]
	 Total Energy              =    -305.9718504205764020 [Eh]
	-----------------------------------------------------------
	 ================> DF-SCS-MP2 Energies <================== 
	-----------------------------------------------------------
	 SCS Same-Spin Scale       =       0.3333333333333333 [-]
	 SCS Opposite-Spin Scale   =       1.2000000000000000 [-]
	 SCS Same-Spin Energy      =      -0.0980078626856969 [Eh]
	 SCS Opposite-Spin Energy  =      -1.1081068902002793 [Eh]
	 SCS Correlation Energy    =      -1.2061147528859761 [Eh]
	 SCS Total Energy          =    -305.9605191769050521 [Eh]
	-----------------------------------------------------------


*** tstop() called on n085 at Mon Jun  8 12:48:22 2020
Module time:
	user time   =      23.81 seconds =       0.40 minutes
	system time =       0.23 seconds =       0.00 minutes
	total time  =          6 seconds =       0.10 minutes
Total time:
	user time   =     176.57 seconds =       2.94 minutes
	system time =       5.89 seconds =       0.10 minutes
	total time  =         47 seconds =       0.78 minutes

========================OPTAVC-XTPL==========================

MP2/QZ correlation energy -1.2174459965573234
SCF/QZ reference energy -304.75440442401907


=============================================================

Scratch directory: /tmp/

Scratch directory: /tmp/
    SCF Algorithm Type (re)set to DF.

*** tstart() called on n085
*** at Mon Jun  8 12:48:23 2020


  //>>>>>>>>>>>>>>>>>>>>>>>>>>>>>>>>>>>//
  //      Guess SCF, pcseg-0 Basis     //
  //<<<<<<<<<<<<<<<<<<<<<<<<<<<<<<<<<<<//

   => Loading Basis Set <=

    Name: PCSEG-0
    Role: ORBITAL
    Keyword: BASIS
    atoms 1, 4, 7, 10     entry C          line    71 file /opt/psi/4/master/share/psi4/basis/pcseg-0.gbs 
    atoms 2-3, 5-6, 8, 11 entry H          line    13 file /opt/psi/4/master/share/psi4/basis/pcseg-0.gbs 
    atoms 9, 12           entry O          line   103 file /opt/psi/4/master/share/psi4/basis/pcseg-0.gbs 


         ---------------------------------------------------------
                           SCF Castup computation                  
         ---------------------------------------------------------
                                   SCF
               by Justin Turney, Rob Parrish, Andy Simmonett
                          and Daniel G. A. Smith
                              RHF Reference
                        4 Threads,    500 MiB Core
         ---------------------------------------------------------

  ==> Geometry <==

    Molecular point group: c1
    Full point group: C1

    Geometry (in Angstrom), charge = 0, multiplicity = 1:

       Center              X                  Y                   Z               Mass       
    ------------   -----------------  -----------------  -----------------  -----------------
         C           -1.173364167503    -0.774741425217    -0.000123525603    12.000000000000
         H           -1.618801240903    -1.211408471017    -0.890664532703     1.007825032230
         H           -1.618878279803    -1.211597844517     0.890286003997     1.007825032230
         C           -1.173481847603     0.775100543037     0.000042961579    12.000000000000
         H           -1.619354961860     1.210499876935     0.890550741975     1.007825032230
         H           -1.619305197543     1.210688018215    -0.890396858525     1.007825032230
         C            0.354585847646     0.920558912769     0.000099594197    12.000000000000
         H            0.839009542161     1.891670958813     0.000209215999     1.007825032230
         O            0.765256772530     0.000111732263    -1.025539963326    15.994914619570
         C            0.355201007357    -0.920807556203    -0.000073887048    12.000000000000
         H            0.840278289275    -1.891592234213    -0.000153792516     1.007825032230
         O            0.765185836103    -0.000084997745     1.025591781574    15.994914619570

  Running in c1 symmetry.

  Rotational constants: A =      0.19897  B =      0.16267  C =      0.14701 [cm^-1]
  Rotational constants: A =   5965.01332  B =   4876.62887  C =   4407.22139 [MHz]
  Nuclear repulsion =  257.284336028895495

  Charge       = 0
  Multiplicity = 1
  Electrons    = 46
  Nalpha       = 23
  Nbeta        = 23

  ==> Algorithm <==

  SCF Algorithm Type is DF.
  DIIS enabled.
  MOM disabled.
  Fractional occupation disabled.
  Guess Type is SAD.
  Energy threshold   = 1.00e-10
  Density threshold  = 1.00e-10
  Integral threshold = 0.00e+00

  ==> Primary Basis <==

  Basis Set: PCSEG-0
    Blend: PCSEG-0
    Number of shells: 42
    Number of basis function: 66
    Number of Cartesian functions: 66
    Spherical Harmonics?: true
    Max angular momentum: 1

   => Loading Basis Set <=

    Name: (PCSEG-0 AUX)
    Role: JKFIT
    Keyword: DF_BASIS_SCF
    atoms 1, 4, 7, 10     entry C          line   198 file /opt/psi/4/master/share/psi4/basis/def2-universal-jkfit.gbs 
    atoms 2-3, 5-6, 8, 11 entry H          line    18 file /opt/psi/4/master/share/psi4/basis/def2-universal-jkfit.gbs 
    atoms 9, 12           entry O          line   318 file /opt/psi/4/master/share/psi4/basis/def2-universal-jkfit.gbs 

  ==> Integral Setup <==

  ==> DiskDFJK: Density-Fitted J/K Matrices <==

    J tasked:                  Yes
    K tasked:                  Yes
    wK tasked:                  No
    OpenMP threads:              4
    Integrals threads:           4
    Memory [MiB]:              375
    Algorithm:                Core
    Integral Cache:           NONE
    Schwarz Cutoff:          1E-12
    Fitting Condition:       1E-10

   => Auxiliary Basis Set <=

  Basis Set: (PCSEG-0 AUX)
    Blend: DEF2-UNIVERSAL-JKFIT
    Number of shells: 186
    Number of basis function: 562
    Number of Cartesian functions: 662
    Spherical Harmonics?: true
    Max angular momentum: 4

  Minimum eigenvalue in the overlap matrix is 1.2848895170E-03.
  Reciprocal condition number of the overlap matrix is 2.1204646358E-04.
    Using symmetric orthogonalization.

  ==> Pre-Iterations <==

  SCF Guess: Superposition of Atomic Densities via on-the-fly atomic UHF (no occupation information).

   -------------------------
    Irrep   Nso     Nmo    
   -------------------------
     A         66      66 
   -------------------------
    Total      66      66
   -------------------------

  ==> Iterations <==

                           Total Energy        Delta E     RMS |[F,P]|

   @DF-RHF iter SAD:  -303.71989586752079   -3.03720e+02   0.00000e+00 
   @DF-RHF iter   1:  -303.56550544166743    1.54390e-01   7.23108e-03 DIIS
   @DF-RHF iter   2:  -303.66451764862381   -9.90122e-02   3.93897e-03 DIIS
   @DF-RHF iter   3:  -303.68977357985648   -2.52559e-02   6.16840e-04 DIIS
   @DF-RHF iter   4:  -303.69094523871553   -1.17166e-03   1.94591e-04 DIIS
   @DF-RHF iter   5:  -303.69103894186742   -9.37032e-05   4.08288e-05 DIIS
   @DF-RHF iter   6:  -303.69104641998325   -7.47812e-06   8.29792e-06 DIIS
   @DF-RHF iter   7:  -303.69104681451296   -3.94530e-07   1.67291e-06 DIIS
   @DF-RHF iter   8:  -303.69104682817454   -1.36616e-08   5.34753e-07 DIIS
   @DF-RHF iter   9:  -303.69104682954810   -1.37356e-09   1.06315e-07 DIIS
   @DF-RHF iter  10:  -303.69104682962035   -7.22480e-11   1.80647e-08 DIIS
   @DF-RHF iter  11:  -303.69104682962200   -1.64846e-12   2.72357e-09 DIIS
   @DF-RHF iter  12:  -303.69104682962200    0.00000e+00   6.75559e-10 DIIS
   @DF-RHF iter  13:  -303.69104682962200    0.00000e+00   2.52208e-10 DIIS
   @DF-RHF iter  14:  -303.69104682962200    0.00000e+00   6.06006e-11 DIIS
  Energy and wave function converged.


  ==> Post-Iterations <==

    Orbital Energies [Eh]
    ---------------------

    Doubly Occupied:                                                      

       1A    -20.584705     2A    -20.584641     3A    -11.369482  
       4A    -11.369454     5A    -11.255711     6A    -11.255307  
       7A     -1.541103     8A     -1.314917     9A     -1.091342  
      10A     -1.009225    11A     -0.822025    12A     -0.789655  
      13A     -0.768969    14A     -0.682156    15A     -0.662595  
      16A     -0.660560    17A     -0.552704    18A     -0.534331  
      19A     -0.528067    20A     -0.524561    21A     -0.519370  
      22A     -0.467833    23A     -0.442503  

    Virtual:                                                              

      24A      0.203348    25A      0.231931    26A      0.236261  
      27A      0.242130    28A      0.253919    29A      0.267577  
      30A      0.315040    31A      0.350766    32A      0.351410  
      33A      0.384117    34A      0.406803    35A      0.467117  
      36A      0.571399    37A      0.796108    38A      0.805427  
      39A      0.820935    40A      0.925134    41A      0.933230  
      42A      0.945926    43A      0.950785    44A      1.003726  
      45A      1.005191    46A      1.031125    47A      1.060973  
      48A      1.071971    49A      1.134849    50A      1.149228  
      51A      1.170443    52A      1.174010    53A      1.210818  
      54A      1.238464    55A      1.423284    56A      1.454738  
      57A      1.483676    58A      1.522831    59A      1.692070  
      60A      1.706579    61A      1.927941    62A      1.952173  
      63A      2.141270    64A      2.299780    65A      2.375814  
      66A      2.444130  

    Final Occupation by Irrep:
              A 
    DOCC [    23 ]

  @DF-RHF Final Energy:  -303.69104682962200

   => Energetics <=

    Nuclear Repulsion Energy =            257.2843360288954955
    One-Electron Energy =                -923.2883331963051887
    Two-Electron Energy =                 362.3129503377876972
    Total Energy =                       -303.6910468296219960

Computation Completed

  //>>>>>>>>>>>>>>>>>>>>>>>>>>>>>>>>>>>//
  //                SCF                //
  //<<<<<<<<<<<<<<<<<<<<<<<<<<<<<<<<<<<//

   => Loading Basis Set <=

    Name: HEAVY-AUG-CC-PV(T+D)Z
    Role: ORBITAL
    Keyword: BASIS
    atoms 1, 4, 7, 10     entry C          line   273 file /opt/psi/4/master/share/psi4/basis/heavy-aug-cc-pv_tpd_z.gbs 
    atoms 2-3, 5-6, 8, 11 entry H          line    86 file /opt/psi/4/master/share/psi4/basis/heavy-aug-cc-pv_tpd_z.gbs 
    atoms 9, 12           entry O          line   365 file /opt/psi/4/master/share/psi4/basis/heavy-aug-cc-pv_tpd_z.gbs 


         ---------------------------------------------------------
                                   SCF
               by Justin Turney, Rob Parrish, Andy Simmonett
                          and Daniel G. A. Smith
                              RHF Reference
                        4 Threads,    500 MiB Core
         ---------------------------------------------------------

  ==> Geometry <==

    Molecular point group: c1
    Full point group: C1

    Geometry (in Angstrom), charge = 0, multiplicity = 1:

       Center              X                  Y                   Z               Mass       
    ------------   -----------------  -----------------  -----------------  -----------------
         C           -1.173364167503    -0.774741425217    -0.000123525603    12.000000000000
         H           -1.618801240903    -1.211408471017    -0.890664532703     1.007825032230
         H           -1.618878279803    -1.211597844517     0.890286003997     1.007825032230
         C           -1.173481847603     0.775100543037     0.000042961579    12.000000000000
         H           -1.619354961860     1.210499876935     0.890550741975     1.007825032230
         H           -1.619305197543     1.210688018215    -0.890396858525     1.007825032230
         C            0.354585847646     0.920558912769     0.000099594197    12.000000000000
         H            0.839009542161     1.891670958813     0.000209215999     1.007825032230
         O            0.765256772530     0.000111732263    -1.025539963326    15.994914619570
         C            0.355201007357    -0.920807556203    -0.000073887048    12.000000000000
         H            0.840278289275    -1.891592234213    -0.000153792516     1.007825032230
         O            0.765185836103    -0.000084997745     1.025591781574    15.994914619570

  Running in c1 symmetry.

  Rotational constants: A =      0.19897  B =      0.16267  C =      0.14701 [cm^-1]
  Rotational constants: A =   5965.01332  B =   4876.62887  C =   4407.22139 [MHz]
  Nuclear repulsion =  257.284336028895495

  Charge       = 0
  Multiplicity = 1
  Electrons    = 46
  Nalpha       = 23
  Nbeta        = 23

  ==> Algorithm <==

  SCF Algorithm Type is DF.
  DIIS enabled.
  MOM disabled.
  Fractional occupation disabled.
  Guess Type is SAD.
  Energy threshold   = 1.00e-10
  Density threshold  = 1.00e-10
  Integral threshold = 0.00e+00

  ==> Primary Basis <==

  Basis Set: HEAVY-AUG-CC-PV(T+D)Z
    Blend: HEAVY-AUG-CC-PV(T+D)Z
    Number of shells: 120
    Number of basis function: 360
    Number of Cartesian functions: 420
    Spherical Harmonics?: true
    Max angular momentum: 3

   => Loading Basis Set <=

    Name: (HEAVY-AUG-CC-PV(T+D)Z AUX)
    Role: JKFIT
    Keyword: DF_BASIS_SCF
    atoms 1, 4, 7, 10     entry C          line   200 file /opt/psi/4/master/share/psi4/basis/heavy-aug-cc-pvtz-jkfit.gbs 
    atoms 2-3, 5-6, 8, 11 entry H          line   116 file /opt/psi/4/master/share/psi4/basis/heavy-aug-cc-pvtz-jkfit.gbs 
    atoms 9, 12           entry O          line   324 file /opt/psi/4/master/share/psi4/basis/heavy-aug-cc-pvtz-jkfit.gbs 


  Computing basis projection from PCSEG-0 to HEAVY-AUG-CC-PV(T+D)Z

  ==> Integral Setup <==

  ==> DiskDFJK: Density-Fitted J/K Matrices <==

    J tasked:                  Yes
    K tasked:                  Yes
    wK tasked:                  No
    OpenMP threads:              4
    Integrals threads:           4
    Memory [MiB]:              375
    Algorithm:                Disk
    Integral Cache:           NONE
    Schwarz Cutoff:          1E-12
    Fitting Condition:       1E-10

   => Auxiliary Basis Set <=

  Basis Set: (HEAVY-AUG-CC-PV(T+D)Z AUX)
    Blend: HEAVY-AUG-CC-PVTZ-JKFIT
    Number of shells: 240
    Number of basis function: 804
    Number of Cartesian functions: 996
    Spherical Harmonics?: true
    Max angular momentum: 4

  Minimum eigenvalue in the overlap matrix is 5.5197099090E-06.
  Reciprocal condition number of the overlap matrix is 4.0334145643E-07.
    Using symmetric orthogonalization.

  ==> Pre-Iterations <==

  SCF Guess: Orbitals guess was supplied from a previous computation.

   -------------------------
    Irrep   Nso     Nmo    
   -------------------------
     A        360     360 
   -------------------------
    Total     360     360
   -------------------------

  ==> Iterations <==

                           Total Energy        Delta E     RMS |[F,P]|

   @DF-RHF iter   0:  -304.36200144536571   -3.04362e+02   4.16873e-03 
   @DF-RHF iter   1:  -304.71676979169331   -3.54768e-01   5.74374e-04 DIIS
   @DF-RHF iter   2:  -304.73197321324204   -1.52034e-02   2.72636e-04 DIIS
   @DF-RHF iter   3:  -304.73568236687140   -3.70915e-03   4.86070e-05 DIIS
   @DF-RHF iter   4:  -304.73594505885762   -2.62692e-04   1.55379e-05 DIIS
   @DF-RHF iter   5:  -304.73596574905599   -2.06902e-05   6.19932e-06 DIIS
   @DF-RHF iter   6:  -304.73596952960486   -3.78055e-06   1.41397e-06 DIIS
   @DF-RHF iter   7:  -304.73596978956505   -2.59960e-07   3.09974e-07 DIIS
   @DF-RHF iter   8:  -304.73596980343655   -1.38715e-08   7.92733e-08 DIIS
   @DF-RHF iter   9:  -304.73596980435269   -9.16145e-10   2.57461e-08 DIIS
   @DF-RHF iter  10:  -304.73596980443608   -8.33893e-11   6.38097e-09 DIIS
   @DF-RHF iter  11:  -304.73596980444324   -7.16227e-12   1.65578e-09 DIIS
   @DF-RHF iter  12:  -304.73596980444296    2.84217e-13   4.69955e-10 DIIS
   @DF-RHF iter  13:  -304.73596980444404   -1.08002e-12   7.50668e-11 DIIS
  Energy and wave function converged.


  ==> Post-Iterations <==

    Orbital Energies [Eh]
    ---------------------

    Doubly Occupied:                                                      

       1A    -20.568162     2A    -20.568125     3A    -11.349349  
       4A    -11.349318     5A    -11.237204     6A    -11.236634  
       7A     -1.494737     8A     -1.294699     9A     -1.067143  
      10A     -0.988458    11A     -0.810434    12A     -0.789234  
      13A     -0.747264    14A     -0.673778    15A     -0.653373  
      16A     -0.646055    17A     -0.534882    18A     -0.525109  
      19A     -0.519174    20A     -0.511631    21A     -0.509691  
      22A     -0.460207    23A     -0.432608  

    Virtual:                                                              

      24A      0.050382    25A      0.051070    26A      0.059622  
      27A      0.072081    28A      0.073448    29A      0.092445  
      30A      0.093513    31A      0.096730    32A      0.116617  
      33A      0.126337    34A      0.127431    35A      0.130084  
      36A      0.162165    37A      0.176140    38A      0.195334  
      39A      0.204218    40A      0.206548    41A      0.214091  
      42A      0.220724    43A      0.228195    44A      0.233733  
      45A      0.249319    46A      0.268498    47A      0.268731  
      48A      0.277084    49A      0.295614    50A      0.301225  
      51A      0.313880    52A      0.331440    53A      0.335594  
      54A      0.342079    55A      0.347970    56A      0.356567  
      57A      0.357016    58A      0.362455    59A      0.375119  
      60A      0.398015    61A      0.404211    62A      0.412726  
      63A      0.421327    64A      0.432923    65A      0.446447  
      66A      0.458314    67A      0.466293    68A      0.485733  
      69A      0.493068    70A      0.504862    71A      0.511344  
      72A      0.516762    73A      0.520021    74A      0.527182  
      75A      0.528914    76A      0.543520    77A      0.545768  
      78A      0.580818    79A      0.593003    80A      0.608415  
      81A      0.612643    82A      0.621885    83A      0.654055  
      84A      0.658333    85A      0.672863    86A      0.722189  
      87A      0.736410    88A      0.747628    89A      0.754113  
      90A      0.770674    91A      0.781032    92A      0.791230  
      93A      0.797743    94A      0.816251    95A      0.818792  
      96A      0.828831    97A      0.843593    98A      0.877710  
      99A      0.891556   100A      0.928018   101A      0.929259  
     102A      0.938857   103A      0.946142   104A      0.970268  
     105A      0.986447   106A      0.998943   107A      1.032082  
     108A      1.037349   109A      1.039094   110A      1.060556  
     111A      1.081870   112A      1.096337   113A      1.114482  
     114A      1.121458   115A      1.138162   116A      1.161010  
     117A      1.186424   118A      1.223415   119A      1.247907  
     120A      1.251738   121A      1.261398   122A      1.283172  
     123A      1.322163   124A      1.330207   125A      1.336495  
     126A      1.353082   127A      1.373971   128A      1.383410  
     129A      1.398373   130A      1.403563   131A      1.414333  
     132A      1.446973   133A      1.447920   134A      1.458798  
     135A      1.483112   136A      1.498812   137A      1.505722  
     138A      1.528274   139A      1.546584   140A      1.559978  
     141A      1.582020   142A      1.586195   143A      1.587767  
     144A      1.589419   145A      1.600472   146A      1.654884  
     147A      1.656900   148A      1.670442   149A      1.677095  
     150A      1.684594   151A      1.698891   152A      1.707939  
     153A      1.716111   154A      1.731961   155A      1.735237  
     156A      1.750410   157A      1.752935   158A      1.791734  
     159A      1.800734   160A      1.807717   161A      1.823596  
     162A      1.902301   163A      1.902633   164A      1.931134  
     165A      1.941045   166A      1.949857   167A      1.984772  
     168A      1.991811   169A      2.003215   170A      2.007696  
     171A      2.027302   172A      2.047747   173A      2.055037  
     174A      2.058806   175A      2.151281   176A      2.151622  
     177A      2.210428   178A      2.251986   179A      2.300456  
     180A      2.333541   181A      2.392513   182A      2.401022  
     183A      2.420678   184A      2.443093   185A      2.452080  
     186A      2.473987   187A      2.505644   188A      2.508970  
     189A      2.541387   190A      2.579762   191A      2.629404  
     192A      2.646630   193A      2.681594   194A      2.687574  
     195A      2.724198   196A      2.769254   197A      2.791520  
     198A      2.876552   199A      2.877371   200A      2.891487  
     201A      2.914311   202A      2.921005   203A      2.955536  
     204A      2.960851   205A      2.965902   206A      3.078028  
     207A      3.097503   208A      3.119926   209A      3.127036  
     210A      3.181952   211A      3.187221   212A      3.206529  
     213A      3.217488   214A      3.240615   215A      3.263499  
     216A      3.307533   217A      3.334740   218A      3.408950  
     219A      3.413219   220A      3.415408   221A      3.435829  
     222A      3.441346   223A      3.474561   224A      3.485272  
     225A      3.501736   226A      3.524826   227A      3.538887  
     228A      3.604051   229A      3.626972   230A      3.632778  
     231A      3.667614   232A      3.683742   233A      3.697321  
     234A      3.707109   235A      3.728649   236A      3.731753  
     237A      3.749993   238A      3.816707   239A      3.834493  
     240A      3.843557   241A      3.866800   242A      3.877622  
     243A      3.928585   244A      3.952023   245A      3.962027  
     246A      3.963367   247A      3.964523   248A      4.003988  
     249A      4.020353   250A      4.048964   251A      4.054306  
     252A      4.076245   253A      4.107044   254A      4.113293  
     255A      4.146049   256A      4.164818   257A      4.171372  
     258A      4.180930   259A      4.187585   260A      4.212671  
     261A      4.238298   262A      4.246214   263A      4.259525  
     264A      4.265471   265A      4.269597   266A      4.316665  
     267A      4.344224   268A      4.366212   269A      4.425064  
     270A      4.469426   271A      4.481551   272A      4.482794  
     273A      4.496393   274A      4.513265   275A      4.527622  
     276A      4.552800   277A      4.584242   278A      4.638446  
     279A      4.688733   280A      4.690467   281A      4.701116  
     282A      4.706694   283A      4.732574   284A      4.744183  
     285A      4.756521   286A      4.806577   287A      4.820570  
     288A      4.821566   289A      4.839527   290A      4.886437  
     291A      4.908518   292A      4.957806   293A      4.964296  
     294A      4.965696   295A      5.097132   296A      5.118287  
     297A      5.123855   298A      5.192646   299A      5.193079  
     300A      5.239871   301A      5.268838   302A      5.283813  
     303A      5.394426   304A      5.419172   305A      5.436734  
     306A      5.465601   307A      5.473664   308A      5.581197  
     309A      5.582087   310A      5.599171   311A      5.654201  
     312A      5.704996   313A      5.712340   314A      5.719815  
     315A      5.862442   316A      5.868649   317A      5.898581  
     318A      5.929330   319A      6.060708   320A      6.124121  
     321A      6.146223   322A      6.206875   323A      6.247336  
     324A      6.283077   325A      6.288532   326A      6.351751  
     327A      6.383906   328A      6.494685   329A      6.560835  
     330A      6.901595   331A      6.903960   332A      6.943635  
     333A      6.965955   334A      6.996473   335A      7.025472  
     336A      7.106785   337A      7.130883   338A      7.173631  
     339A      7.194389   340A      7.230873   341A      7.241581  
     342A      7.392073   343A      7.493311   344A      7.590070  
     345A      7.610520   346A      7.641798   347A      7.743279  
     348A      7.797557   349A      7.823135   350A      7.913131  
     351A      8.043804   352A      8.201031   353A      8.217135  
     354A      8.228567   355A     14.251111   356A     15.440647  
     357A     15.597852   358A     15.881777   359A     17.427086  
     360A     18.741258  

    Final Occupation by Irrep:
              A 
    DOCC [    23 ]

  @DF-RHF Final Energy:  -304.73596980444404

   => Energetics <=

    Nuclear Repulsion Energy =            257.2843360288954955
    One-Electron Energy =                -926.1060696618055772
    Two-Electron Energy =                 364.0857638284660425
    Total Energy =                       -304.7359698044440393

Computation Completed


Properties will be evaluated at   0.000000,   0.000000,   0.000000 [a0]

Properties computed using the SCF density matrix

  Nuclear Dipole Moment: [e a0]
     X:    -4.4897      Y:    -0.0016      Z:    -0.0002

  Electronic Dipole Moment: [e a0]
     X:     3.7303      Y:     0.0015      Z:     0.0001

  Dipole Moment: [e a0]
     X:    -0.7595      Y:    -0.0002      Z:    -0.0000     Total:     0.7595

  Dipole Moment: [D]
     X:    -1.9304      Y:    -0.0004      Z:    -0.0001     Total:     1.9304


*** tstop() called on n085 at Mon Jun  8 12:48:31 2020
Module time:
	user time   =      30.31 seconds =       0.51 minutes
	system time =       1.43 seconds =       0.02 minutes
	total time  =          8 seconds =       0.13 minutes
Total time:
	user time   =     207.37 seconds =       3.46 minutes
	system time =       7.47 seconds =       0.12 minutes
	total time  =         56 seconds =       0.93 minutes

*** tstart() called on n085
*** at Mon Jun  8 12:48:31 2020


  //>>>>>>>>>>>>>>>>>>>>>>>>>>>>>>>>>>>//
  //               DFMP2               //
  //<<<<<<<<<<<<<<<<<<<<<<<<<<<<<<<<<<<//

   => Loading Basis Set <=

    Name: (HEAVY-AUG-CC-PV(T+D)Z AUX)
    Role: RIFIT
    Keyword: DF_BASIS_MP2
    atoms 1, 4, 7, 10     entry C          line   148 file /opt/psi/4/master/share/psi4/basis/heavy-aug-cc-pvtz-ri.gbs 
    atoms 2-3, 5-6, 8, 11 entry H          line    44 file /opt/psi/4/master/share/psi4/basis/heavy-aug-cc-pvtz-ri.gbs 
    atoms 9, 12           entry O          line   264 file /opt/psi/4/master/share/psi4/basis/heavy-aug-cc-pvtz-ri.gbs 

	 --------------------------------------------------------
	                          DF-MP2                         
	      2nd-Order Density-Fitted Moller-Plesset Theory     
	              RMP2 Wavefunction,   4 Threads             
	                                                         
	        Rob Parrish, Justin Turney, Andy Simmonett,      
	           Ed Hohenstein, and C. David Sherrill          
	 --------------------------------------------------------

   => Auxiliary Basis Set <=

  Basis Set: (HEAVY-AUG-CC-PV(T+D)Z AUX)
    Blend: HEAVY-AUG-CC-PVTZ-RI
    Number of shells: 228
    Number of basis function: 816
    Number of Cartesian functions: 1026
    Spherical Harmonics?: true
    Max angular momentum: 4

	 --------------------------------------------------------
	                 NBF =   360, NAUX =   816
	 --------------------------------------------------------
	   CLASS    FOCC     OCC    AOCC    AVIR     VIR    FVIR
	   PAIRS       6      23      17     337     337       0
	 --------------------------------------------------------

	-----------------------------------------------------------
	 ==================> DF-MP2 Energies <==================== 
	-----------------------------------------------------------
	 Reference Energy          =    -304.7359698044440393 [Eh]
	 Singles Energy            =      -0.0000000000000000 [Eh]
	 Same-Spin Energy          =      -0.2853707757240989 [Eh]
	 Opposite-Spin Energy      =      -0.8628728373515622 [Eh]
	 Correlation Energy        =      -1.1482436130756610 [Eh]
	 Total Energy              =    -305.8842134175196747 [Eh]
	-----------------------------------------------------------
	 ================> DF-SCS-MP2 Energies <================== 
	-----------------------------------------------------------
	 SCS Same-Spin Scale       =       0.3333333333333333 [-]
	 SCS Opposite-Spin Scale   =       1.2000000000000000 [-]
	 SCS Same-Spin Energy      =      -0.0951235919080329 [Eh]
	 SCS Opposite-Spin Energy  =      -1.0354474048218745 [Eh]
	 SCS Correlation Energy    =      -1.1305709967299074 [Eh]
	 SCS Total Energy          =    -305.8665408011739260 [Eh]
	-----------------------------------------------------------


*** tstop() called on n085 at Mon Jun  8 12:48:33 2020
Module time:
	user time   =       5.76 seconds =       0.10 minutes
	system time =       0.09 seconds =       0.00 minutes
	total time  =          2 seconds =       0.03 minutes
Total time:
	user time   =     213.14 seconds =       3.55 minutes
	system time =       7.56 seconds =       0.13 minutes
	total time  =         58 seconds =       0.97 minutes

========================OPTAVC-XTPL==========================

MP2/TZ correlation energy -1.148243613075661

=============================================================

    Psi4 stopped on: Monday, 08 June 2020 12:48PM
    Psi4 wall time for execution: 0:00:57.66

*** Psi4 exiting successfully. Buy a developer a beer!
