
 Primary working directories    : /tmp/320938.471.gen4.q
 Secondary working directories  : /tmp/320938.471.gen4.q
 Wavefunction directory         : /home/vulcan/mel64643/wfu/
 Main file repository           : /tmp/320938.471.gen4.q/

 ARCHNAME  : Linux/x86_64
 FC        : /opt/intel/compilers_and_libraries_2016.1.150/linux/bin/intel64/ifort
 FCVERSION : 16.0.1
 BLASLIB   : -mkl
 id        : ccgc

 Nodes     nprocs
 n064         3
 Number of processes for MPI-2 version of Molpro:   nprocs(total)=    4   nprocs(compute)=    3   nprocs(helper)=    1
 ga_uses_ma=false, calling ma_init with nominal heap.
 GA-space will be limited to   8.0 MW (determined by -G option)

 Using customized tuning parameters: mindgm=10; mindgv=16; mindgc=4; mindgr=1; noblas=0; mincuda=1000; minvec=7
 default implementation of scratch files=sf  

 ***,Frequencies for min3
 memory,1000,m
 gthresh,energy=1.0d-10,orbital=1.0d-10,oneint=1.0d-16,twoint=1.0d-16,optgrad=1.0d-6,compress=1.0d-13
 geomtyp=xyz
 
  geometry = {
  12
  arbitrary comment
     C    1.776964391707    0.711398808326   -0.047331391796
     C    0.491811976407   -0.059992870174   -0.196493901896
     C    0.450332819107   -1.536294019674    0.101417522804
     O   -0.561250607111    0.727212957755    0.254433283288
     O   -1.837493810948    0.092357788778   -0.120477568666
     H    2.583301923692    0.211040161070   -0.611484932345
     H    1.661460200505    1.742601741645   -0.426658965096
     H    2.095975484438    0.773751497873    1.017571586531
     H   -0.504378750920   -1.982744011865   -0.220140187415
     H    1.282383039145   -2.047436281277   -0.417159289737
     H    0.562273061530   -1.719239095432    1.194709843755
     H   -1.987167583231    0.551054283985   -0.967187524775
  }
 
 basis=cc-pvdz
 {rhf;maxit,200}
 {uccsd(t);maxit,200}

 Variables initialized (661), CPU time= 0.00 sec
 Commands  initialized (458), CPU time= 0.01 sec, 486 directives.
 Default parameters read. Elapsed time= 0.06 sec

 Checking input...
 Passed
1


                                         ***  PROGRAM SYSTEM MOLPRO  ***
                         Copyright, University College Cardiff Consultants Limited, 2008

                                    Version 2010.1 linked May 16 2016 07:17:05


 **********************************************************************************************************************************
 LABEL *   Frequencies for min3                                                          
 Linux-4.4.3/n064(x86_64) 64 bit mpp version                                             DATE: 07-Mar-20          TIME: 03:43:19  
 **********************************************************************************************************************************

 SHA1:             9e8077add272b0f3cad6f7df79ec5211205f459d
 **********************************************************************************************************************************

 THRESHOLDS:

 ZERO    =  1.00D-12  ONEINT  =  1.00D-16  TWOINT  =  1.00D-16  PREFAC  =  1.00D-14  LOCALI  =  1.00D-09  EORDER  =  1.00D-04
 ENERGY  =  1.00D-10  ETEST   =  0.00D+00  EDENS   =  0.00D+00  THRDEDEF=  1.00D-06  GRADIENT=  1.00D-02  STEP    =  1.00D-03
 ORBITAL =  1.00D-10  CIVEC   =  1.00D-05  COEFF   =  1.00D-04  PRINTCI =  5.00D-02  PUNCHCI =  9.90D+01  OPTGRAD =  1.00D-06
 OPTENERG=  1.00D-06  OPTSTEP =  3.00D-04  THRGRAD =  1.00D-10  COMPRESS=  1.00D-13  VARMIN  =  1.00D-07  VARMAX  =  1.00D-03
 THRDOUB =  0.00D+00  THRDIV  =  1.00D-05  THRRED  =  1.00D-07  THRPSP  =  1.00D+00  THRDC   =  1.00D-10  THRCS   =  1.00D-10
 THRNRM  =  1.00D-08  THREQ   =  0.00D+00  THRDE   =  1.00D+00  THRREF  =  1.00D-05  SPARFAC =  1.00D+00  THRDLP  =  1.00D-07
 THRDIA  =  1.00D-10  THRDLS  =  1.00D-07  THRGPS  =  0.00D+00  THRKEX  =  0.00D+00  THRDIS  =  2.00D-01  THRVAR  =  1.00D-10
 THRLOC  =  1.00D-06  THRGAP  =  1.00D-06  THRLOCT = -1.00D+00  THRGAPT = -1.00D+00  THRORB  =  1.00D-06  THRMLTP =  0.00D+00
 THRCPQCI=  1.00D-10  KEXTA   =  0.00D+00  THRCOARS=  0.00D+00  SYMTOL  =  1.00D-06  GRADTOL =  1.00D-06  THROVL  =  1.00D-08
 THRORTH =  1.00D-08  GRID    =  1.00D-06  GRIDMAX =  1.00D-03  DTMAX   =  0.00D+00

 SETTING GEOMTYP        =    XYZ

 Variable memory set to 1000000000 words,  buffer space   230000 words

 SETTING BASIS          =    CC-PVDZ


 Recomputing integrals since basis changed


 Using spherical harmonics

 Library entry C      S cc-pVDZ              selected for orbital group  1
 Library entry C      P cc-pVDZ              selected for orbital group  1
 Library entry C      D cc-pVDZ              selected for orbital group  1
 Library entry O      S cc-pVDZ              selected for orbital group  2
 Library entry O      P cc-pVDZ              selected for orbital group  2
 Library entry O      D cc-pVDZ              selected for orbital group  2
 Library entry H      S cc-pVDZ              selected for orbital group  3
 Library entry H      P cc-pVDZ              selected for orbital group  3

1PROGRAM * SEWARD (Integral evaluation for generally contracted gaussian basis sets)     Author: Roland Lindh, 1990

 Geometry written to block  1 of record 700


 Point group  C1  



 ATOMIC COORDINATES

 NR  ATOM    CHARGE       X              Y              Z

   1  C       6.00    3.357976046    1.344348918   -0.089443368
   2  C       6.00    0.929389944   -0.113370094   -0.371319661
   3  C       6.00    0.851005696   -2.903174955    0.191651343
   4  O       8.00   -1.060609939    1.374233329    0.480809224
   5  O       8.00   -3.472360071    0.174530927   -0.227669610
   6  H       1.00    4.881733151    0.398808107   -1.155539056
   7  H       1.00    3.139704757    3.293040048   -0.806268596
   8  H       1.00    3.960819644    1.462178425    1.922931618
   9  H       1.00   -0.953137706   -3.746843171   -0.416004665
  10  H       1.00    2.423352740   -3.869093843   -0.788316811
  11  H       1.00    1.062542097   -3.248891045    2.257674411
  12  H       1.00   -3.755202510    1.041341680   -1.827719540

 Bond lengths in Bohr (Angstrom)

 1-2  2.846476668  1-6  2.086250981  1-7  2.087792586  1-8  2.104033574  2-3  2.847119878
     ( 1.506290578)     ( 1.103996471)     ( 1.104812254)     ( 1.113406614)     ( 1.506630951)

  2- 4  2.626630373   3- 9  2.082295680   3-10  2.089404726   3-11  2.105402238   4- 5  2.785276793
       ( 1.389952930)       ( 1.101903416)       ( 1.105665361)       ( 1.114130880)       ( 1.473905000)

  5-12  1.841608130
       ( 0.974537050)

 Bond angles

  1-2-3  120.37866573   1-2-4  108.91918789   2-1-6  109.90413987   2-1-7  110.78091151

  2- 1- 8  111.58284257   2- 3- 9  111.29421182   2- 3-10  109.84817104   2- 3-11  110.61995956

  2- 4- 5  109.24174154   3- 2- 4  118.03081536   4- 5-12   98.69950685   6- 1- 7  108.90112913

  6- 1- 8  107.74993159   7- 1- 8  107.82243106   9- 3-10  109.13756147   9- 3-11  107.87158320

 10- 3-11  107.98243258

 NUCLEAR CHARGE:                   41
 NUMBER OF PRIMITIVE AOS:         184
 NUMBER OF SYMMETRY AOS:          179
 NUMBER OF CONTRACTIONS:          105   ( 105A   )
 NUMBER OF CORE ORBITALS:           5   (   5A   )
 NUMBER OF VALENCE ORBITALS:       27   (  27A   )


 NUCLEAR REPULSION ENERGY  183.23635810


 Eigenvalues of metric

         1 0.345E-02 0.435E-02 0.105E-01 0.141E-01 0.182E-01 0.214E-01 0.331E-01 0.346E-01


 Contracted 2-electron integrals neglected if value below      1.0D-16
 AO integral compression algorithm  1   Integral accuracy      1.0D-16

     127.402 MB (compressed) written to integral file ( 93.4%)

     Node minimum: 40.632 MB, node maximum: 45.613 MB


 NUMBER OF SORTED TWO-ELECTRON INTEGRALS:    5164320.     BUFFER LENGTH:  32768
 NUMBER OF SEGMENTS:   1  SEGMENT LENGTH:    5164320      RECORD LENGTH: 524288

 Memory used in sort:       5.72 MW

 SORT1 READ    17075629. AND WROTE     5136019. INTEGRALS IN     15 RECORDS. CPU TIME:     0.21 SEC, REAL TIME:     0.25 SEC
 SORT2 READ    15396964. AND WROTE    15487395. INTEGRALS IN    465 RECORDS. CPU TIME:     0.06 SEC, REAL TIME:     0.11 SEC

 Node minimum:     5160610.  Node maximum:     5164320. integrals

 OPERATOR DM      FOR CENTER  0  COORDINATES:    0.000000    0.000000    0.000000


 **********************************************************************************************************************************
 DATASETS  * FILE   NREC   LENGTH (MB)   RECORD NAMES
              1      18        3.17       500      610      700      900      950      970     1000      129      960     1100   
                                          VAR    BASINP    GEOM    SYMINP    ZMAT    AOBASIS   BASIS     P2S    ABASIS      S 
                                         1400     1410     1200     1210     1080     1600     1650     1700   
                                           T        V       H0       H01     AOSYM     SMH    MOLCAS    OPER   

 PROGRAMS   *        TOTAL       INT
 CPU TIMES  *         0.94      0.87
 REAL TIME  *         1.41 SEC
 DISK USED  *       307.01 MB      
 GA USED    *         0.00 MB       (max)       0.00 MB       (current)
 **********************************************************************************************************************************

1PROGRAM * RHF-SCF (OPEN SHELL)       Authors: W. Meyer, H.-J. Werner


 NUMBER OF ELECTRONS:      21+   20-    SPACE SYMMETRY=1    SPIN SYMMETRY: Doublet 
 CONVERGENCE THRESHOLDS:    1.00E-10 (Density)    1.00E-11 (Energy)
 MAX. NUMBER OF ITERATIONS:      200
 INTERPOLATION TYPE:            DIIS
 INTERPOLATION STEPS:              2 (START)      1 (STEP)
 LEVEL SHIFTS:                 -0.30 (CLOSED)  0.00 (OPEN) 



 Orbital guess generated from atomic densities. Full valence occupancy:   32

 Molecular orbital dump at record        2100.2

 ITERATION    DDIFF          GRAD             ENERGY        2-EL.EN.            DIPOLE MOMENTS         DIIS
    1      0.000D+00      0.000D+00      -267.17841082    555.841764    0.56798    0.04944   -0.74914    0
    2      0.000D+00      0.617D-02      -267.24907274    555.768226    0.41460   -0.13139   -0.59944    1
    3      0.927D-02      0.214D-02      -267.26121328    555.684806    0.39429   -0.05958   -0.62652    2
    4      0.336D-02      0.911D-03      -267.26479799    555.837332    0.38009   -0.09972   -0.64289    3
    5      0.186D-02      0.363D-03      -267.26536078    555.808716    0.38269   -0.09322   -0.63582    4
    6      0.790D-03      0.109D-03      -267.26543579    555.794858    0.38099   -0.09301   -0.63852    5
    7      0.275D-03      0.506D-04      -267.26545545    555.791897    0.38031   -0.09275   -0.63799    6
    8      0.142D-03      0.270D-04      -267.26546138    555.789927    0.38059   -0.09286   -0.63819    7
    9      0.913D-04      0.114D-04      -267.26546228    555.790246    0.38078   -0.09282   -0.63795    8
   10      0.362D-04      0.496D-05      -267.26546243    555.790851    0.38103   -0.09284   -0.63802    9
   11      0.145D-04      0.195D-05      -267.26546246    555.790695    0.38108   -0.09283   -0.63802    9
   12      0.643D-05      0.665D-06      -267.26546246    555.790830    0.38110   -0.09283   -0.63802    9
   13      0.225D-05      0.224D-06      -267.26546246    555.790746    0.38110   -0.09283   -0.63802    9
   14      0.628D-06      0.749D-07      -267.26546246    555.790755    0.38111   -0.09283   -0.63802    9
   15      0.190D-06      0.296D-07      -267.26546246    555.790751    0.38111   -0.09283   -0.63802    9
   16      0.813D-07      0.142D-07      -267.26546246    555.790752    0.38111   -0.09283   -0.63802    9
   17      0.367D-07      0.738D-08      -267.26546246    555.790752    0.38111   -0.09283   -0.63802    9
   18      0.218D-07      0.337D-08      -267.26546246    555.790752    0.38111   -0.09283   -0.63802    9
   19      0.113D-07      0.131D-08      -267.26546246    555.790752    0.38111   -0.09283   -0.63802    9
   20      0.438D-08      0.554D-09      -267.26546246    555.790752    0.38111   -0.09283   -0.63802    9
   21      0.162D-08      0.280D-09      -267.26546246    555.790752    0.38111   -0.09283   -0.63802    9
   22      0.734D-09      0.158D-09      -267.26546246    555.790752    0.38111   -0.09283   -0.63802    9
   23      0.436D-09      0.778D-10      -267.26546246    555.790752    0.38111   -0.09283   -0.63802    9
   24      0.258D-09      0.309D-10      -267.26546246    555.790752    0.38111   -0.09283   -0.63802    9
   25      0.909D-10      0.126D-10      -267.26546246    555.790752    0.38111   -0.09283   -0.63802    0

 Final alpha occupancy:  21
 Final beta  occupancy:  20

 !RHF STATE 1.1 Energy               -267.265462462561
 Nuclear energy                       183.23635810
 One-electron energy                 -728.39719674
 Two-electron energy                  277.89537618
 Virial quotient                       -1.00154626
 !RHF STATE 1.1 Dipole moment           0.38110726    -0.09283381    -0.63801758
 Dipole moment /Debye                   0.96861459    -0.23594454    -1.62157273

 Orbital energies:

         1.1          2.1          3.1          4.1          5.1          6.1          7.1          8.1          9.1         10.1
    -20.630357   -20.628743   -11.279284   -11.237728   -11.232228    -1.470380    -1.240443    -1.023293    -0.945425    -0.768509

        11.1         12.1         13.1         14.1         15.1         16.1         17.1         18.1         19.1         20.1
     -0.704638    -0.643103    -0.626863    -0.588705    -0.545221    -0.543433    -0.539099    -0.516945    -0.492841    -0.469800

        21.1         22.1         23.1
     -0.352369     0.181299     0.183744


 **********************************************************************************************************************************
 DATASETS  * FILE   NREC   LENGTH (MB)   RECORD NAMES
              1      18        3.17       500      610      700      900      950      970     1000      129      960     1100   
                                          VAR    BASINP    GEOM    SYMINP    ZMAT    AOBASIS   BASIS     P2S    ABASIS      S 
                                         1400     1410     1200     1210     1080     1600     1650     1700   
                                           T        V       H0       H01     AOSYM     SMH    MOLCAS    OPER   

              2       3        0.77       700     1000     2100   
                                         GEOM     BASIS     RHF  

 PROGRAMS   *        TOTAL       RHF       INT
 CPU TIMES  *         2.01      1.07      0.87
 REAL TIME  *         2.67 SEC
 DISK USED  *       323.58 MB      
 SF USED    *         0.04 MB      
 GA USED    *         0.00 MB       (max)       0.00 MB       (current)
 **********************************************************************************************************************************


1PROGRAM * CCSD (Unrestricted open-shell coupled cluster)     Authors: C. Hampel, H.-J. Werner, 1991, M. Deegan, P.J. Knowles, 1992


 Convergence thresholds:  THRVAR = 1.00D-08  THRDEN = 1.00D-10

 CCSD(T)     terms to be evaluated (factor= 1.000)


 Number of core orbitals:           5 (   5 )
 Number of closed-shell orbitals:  15 (  15 )
 Number of active  orbitals:        1 (   1 )
 Number of external orbitals:      84 (  84 )

 Memory could be reduced to 24.91 Mwords without degradation in triples

 Number of N-1 electron functions:              31
 Number of N-2 electron functions:             465
 Number of singly external CSFs:              2635
 Number of doubly external CSFs:           2537250
 Total number of CSFs:                     2539885

 Molecular orbitals read from record     2100.2  Type=RHF/CANONICAL (state 1.1)

 Integral transformation finished. Total CPU:   0.91 sec, npass=  1  Memory used:  12.63 MW

 Starting RMP2 calculation

 ITER.      SQ.NORM     CORR.ENERGY   TOTAL ENERGY   ENERGY CHANGE        DEN1      VAR(S)    VAR(P)  DIIS     TIME
   1      1.24296716    -0.78631995  -268.05178241    -0.78631995    -0.00304853  0.20D-04  0.11D-02  1  1     1.24
   2      1.24560655    -0.78960754  -268.05507000    -0.00328759    -0.00000474  0.54D-06  0.19D-05  2  2     1.54
   3      1.24567200    -0.78964955  -268.05511201    -0.00004201    -0.00000003  0.16D-07  0.68D-08  3  3     1.87
   4      1.24567295    -0.78964955  -268.05511201    -0.00000000    -0.00000000  0.27D-09  0.38D-10  4  4     2.23
   5      1.24567303    -0.78964958  -268.05511204    -0.00000003    -0.00000000  0.25D-11  0.65D-12  5  5     2.61
   6      1.24567304    -0.78964959  -268.05511205    -0.00000001    -0.00000000  0.28D-13  0.86D-14  6  6     3.04
   7      1.24567304    -0.78964959  -268.05511205     0.00000000    -0.00000000  0.47D-15  0.12D-15  6  1     3.45
   8      1.24567304    -0.78964959  -268.05511205     0.00000000    -0.00000000  0.59D-17  0.13D-17  6  2     3.89

 Norm of t1 vector:      0.03892622      S-energy:    -0.00227108      T1 diagnostic:  0.00055018
 Norm of t2 vector:      0.49412326      P-energy:    -0.78737850
                                         Alpha-Beta:  -0.59336642
                                         Alpha-Alpha: -0.10093616
                                         Beta-Beta:   -0.09307593

 Spin contamination <S**2-Sz**2-Sz>     0.00104017
  Reference energy                   -267.265462462562
  RHF-RMP2 correlation energy          -0.789649587098
 !RHF-RMP2 energy                    -268.055112049659

 Starting UCCSD calculation

 ITER.      SQ.NORM     CORR.ENERGY   TOTAL ENERGY   ENERGY CHANGE        DEN1      VAR(S)    VAR(P)  DIIS     TIME
   1      1.26274569    -0.80900524  -268.07446770    -0.80900524    -0.02514667  0.38D-02  0.59D-02  1  1     9.27
   2      1.29150193    -0.83640564  -268.10186810    -0.02740040    -0.00200914  0.22D-03  0.66D-03  2  2    14.64
   3      1.30143103    -0.84089962  -268.10636208    -0.00449398    -0.00032428  0.19D-03  0.56D-04  3  3    20.06
   4      1.30633553    -0.84237504  -268.10783750    -0.00147542    -0.00007195  0.43D-04  0.14D-04  4  4    25.48
   5      1.30905961    -0.84276260  -268.10822506    -0.00038756    -0.00002359  0.19D-04  0.32D-05  5  5    30.90
   6      1.31099152    -0.84296652  -268.10842898    -0.00020392    -0.00000641  0.42D-05  0.12D-05  6  6    36.38
   7      1.31193459    -0.84302501  -268.10848747    -0.00005849    -0.00000206  0.14D-05  0.36D-06  6  2    41.86
   8      1.31237126    -0.84306737  -268.10852983    -0.00004236    -0.00000064  0.44D-06  0.11D-06  6  1    47.33
   9      1.31255344    -0.84307184  -268.10853431    -0.00000448    -0.00000022  0.15D-06  0.34D-07  6  4    52.83
  10      1.31261535    -0.84307472  -268.10853719    -0.00000288    -0.00000005  0.34D-07  0.94D-08  6  3    58.31
  11      1.31264429    -0.84307345  -268.10853592     0.00000127    -0.00000002  0.13D-07  0.28D-08  6  5    63.80
  12      1.31265443    -0.84307318  -268.10853565     0.00000027    -0.00000000  0.25D-08  0.94D-09  6  6    69.26
  13      1.31265327    -0.84307228  -268.10853474     0.00000091    -0.00000000  0.95D-09  0.28D-09  6  2    74.73
  14      1.31264809    -0.84307144  -268.10853390     0.00000084    -0.00000000  0.21D-09  0.66D-10  6  1    80.21
  15      1.31264405    -0.84307086  -268.10853332     0.00000058    -0.00000000  0.77D-10  0.19D-10  6  4    85.72
  16      1.31264089    -0.84307047  -268.10853294     0.00000038    -0.00000000  0.27D-10  0.62D-11  6  3    91.22
  17      1.31263872    -0.84307024  -268.10853270     0.00000024    -0.00000000  0.98D-11  0.23D-11  6  5    96.69
  18      1.31263782    -0.84307018  -268.10853264     0.00000006    -0.00000000  0.40D-11  0.85D-12  6  6   102.18
  19      1.31263723    -0.84307015  -268.10853261     0.00000003    -0.00000000  0.16D-11  0.36D-12  6  2   107.63
  20      1.31263691    -0.84307013  -268.10853260     0.00000001    -0.00000000  0.58D-12  0.13D-12  6  1   113.11
  21      1.31263676    -0.84307012  -268.10853259     0.00000001    -0.00000000  0.27D-12  0.56D-13  6  4   118.55
  22      1.31263664    -0.84307012  -268.10853258     0.00000001    -0.00000000  0.72D-13  0.21D-13  6  3   123.98
  23      1.31263658    -0.84307011  -268.10853258     0.00000000    -0.00000000  0.21D-13  0.61D-14  6  5   129.43
  24      1.31263657    -0.84307011  -268.10853258    -0.00000000    -0.00000000  0.65D-14  0.22D-14  6  6   134.86
  25      1.31263658    -0.84307012  -268.10853258    -0.00000000    -0.00000000  0.20D-14  0.51D-15  6  2   140.30
  26      1.31263659    -0.84307012  -268.10853258    -0.00000000    -0.00000000  0.74D-15  0.15D-15  6  1   145.76
  27      1.31263660    -0.84307012  -268.10853258    -0.00000000    -0.00000000  0.19D-15  0.60D-16  6  3   151.26
  28      1.31263660    -0.84307012  -268.10853258    -0.00000000    -0.00000000  0.28D-16  0.10D-16  6  4   156.71
  29      1.31263660    -0.84307012  -268.10853258    -0.00000000    -0.00000000  0.68D-17  0.28D-17  6  5   162.16
  30      1.31263660    -0.84307012  -268.10853258    -0.00000000    -0.00000000  0.15D-17  0.52D-18  6  6   167.60
  31      1.31263660    -0.84307012  -268.10853258    -0.00000000    -0.00000000  0.34D-18  0.10D-18  6  2   173.01

 Norm of t1 vector:      0.13859723      S-energy:    -0.00282002      T1 diagnostic:  0.01615580
                                                                       D1 diagnostic:  0.06283262
 Norm of t2 vector:      0.54168940      P-energy:    -0.84025009
                                         Alpha-Beta:  -0.66480409
                                         Alpha-Alpha: -0.09147355
                                         Beta-Beta:   -0.08397245

 Spin contamination <S**2-Sz**2-Sz>     0.00215872

 Memory could be reduced to 28.85 Mwords without degradation in triples
 

 RESULTS
 =======

  Reference energy                   -267.265462462562
  UCCSD singles energy                 -0.002820024557
  UCCSD pair energy                    -0.840250092676
  UCCSD correlation energy             -0.843070117233
  Triples (T) contribution             -0.024963292039
  Total correlation energy             -0.868033409272
 
  RHF-UCCSD energy                   -268.108532579795
  RHF-UCCSD[T] energy                -268.134830998113
  RHF-UCCSD-T energy                 -268.133074115825
 !RHF-UCCSD(T) energy                -268.133495871834

 Program statistics:

 Available memory in ccsd:               999997692
 Min. memory needed in ccsd:               7337057
 Max. memory used in ccsd:                10523002
 Max. memory used in cckext:              10867977 (31 integral passes)
 Max. memory used in cckint:              12633073 ( 1 integral passes)



 **********************************************************************************************************************************
 DATASETS  * FILE   NREC   LENGTH (MB)   RECORD NAMES
              1      18        3.17       500      610      700      900      950      970     1000      129      960     1100   
                                          VAR    BASINP    GEOM    SYMINP    ZMAT    AOBASIS   BASIS     P2S    ABASIS      S 
                                         1400     1410     1200     1210     1080     1600     1650     1700   
                                           T        V       H0       H01     AOSYM     SMH    MOLCAS    OPER   

              2       3        0.77       700     1000     2100   
                                         GEOM     BASIS     RHF  

 PROGRAMS   *        TOTAL  UCCSD(T)       RHF       INT
 CPU TIMES  *       221.08    219.07      1.07      0.87
 REAL TIME  *       233.36 SEC
 DISK USED  *         1.29 GB      
 SF USED    *       553.73 MB      
 GA USED    *         0.00 MB       (max)       0.00 MB       (current)
 **********************************************************************************************************************************

        UCCSD(T)        RHF-SCF 
   -268.13349587   -267.26546246
 **********************************************************************************************************************************
 Variable memory released
