
 Primary working directories    : /tmp/320938.74.gen4.q
 Secondary working directories  : /tmp/320938.74.gen4.q
 Wavefunction directory         : /home/vulcan/mel64643/wfu/
 Main file repository           : /tmp/320938.74.gen4.q/

 ARCHNAME  : Linux/x86_64
 FC        : /opt/intel/compilers_and_libraries_2016.1.150/linux/bin/intel64/ifort
 FCVERSION : 16.0.1
 BLASLIB   : -mkl
 id        : ccgc

 Nodes     nprocs
 n050         3
 Number of processes for MPI-2 version of Molpro:   nprocs(total)=    4   nprocs(compute)=    3   nprocs(helper)=    1
 ga_uses_ma=false, calling ma_init with nominal heap.
 GA-space will be limited to   8.0 MW (determined by -G option)

 Using customized tuning parameters: mindgm=10; mindgv=16; mindgc=4; mindgr=1; noblas=0; mincuda=1000; minvec=7
 default implementation of scratch files=sf  

 ***,Frequencies for min3
 memory,1000,m
 gthresh,energy=1.0d-10,orbital=1.0d-10,oneint=1.0d-16,twoint=1.0d-16,optgrad=1.0d-6,compress=1.0d-13
 geomtyp=xyz
 
  geometry = {
  12
  arbitrary comment
     C    1.776964391707    0.711398808326   -0.047331391796
     C    0.491811976407   -0.059992870174   -0.196493901896
     C    0.450332819107   -1.536294019674    0.101417522804
     O   -0.560767745493    0.727234937526    0.254453964104
     O   -1.837840335593    0.092269037726   -0.120531795196
     H    2.585373063107    0.211465914126   -0.611440883996
     H    1.660426393907    1.742887987326   -0.424680639820
     H    2.095490300884    0.774278017338    1.016115057633
     H   -0.505060806899   -1.982852661219   -0.219768443492
     H    1.281655719010   -2.047320367310   -0.418923208107
     H    0.561398326377   -1.718537887124    1.196484453209
     H   -1.987599387938    0.550167001545   -0.967603409695
  }
 
 basis=cc-pvdz
 {rhf;maxit,200}
 {uccsd(t);maxit,200}

 Variables initialized (661), CPU time= 0.01 sec
 Commands  initialized (458), CPU time= 0.00 sec, 486 directives.
 Default parameters read. Elapsed time= 0.05 sec

 Checking input...
 Passed
1


                                         ***  PROGRAM SYSTEM MOLPRO  ***
                         Copyright, University College Cardiff Consultants Limited, 2008

                                    Version 2010.1 linked May 16 2016 07:17:05


 **********************************************************************************************************************************
 LABEL *   Frequencies for min3                                                          
 Linux-4.4.3/n050(x86_64) 64 bit mpp version                                             DATE: 07-Mar-20          TIME: 01:23:04  
 **********************************************************************************************************************************

 SHA1:             9e8077add272b0f3cad6f7df79ec5211205f459d
 **********************************************************************************************************************************

 THRESHOLDS:

 ZERO    =  1.00D-12  ONEINT  =  1.00D-16  TWOINT  =  1.00D-16  PREFAC  =  1.00D-14  LOCALI  =  1.00D-09  EORDER  =  1.00D-04
 ENERGY  =  1.00D-10  ETEST   =  0.00D+00  EDENS   =  0.00D+00  THRDEDEF=  1.00D-06  GRADIENT=  1.00D-02  STEP    =  1.00D-03
 ORBITAL =  1.00D-10  CIVEC   =  1.00D-05  COEFF   =  1.00D-04  PRINTCI =  5.00D-02  PUNCHCI =  9.90D+01  OPTGRAD =  1.00D-06
 OPTENERG=  1.00D-06  OPTSTEP =  3.00D-04  THRGRAD =  1.00D-10  COMPRESS=  1.00D-13  VARMIN  =  1.00D-07  VARMAX  =  1.00D-03
 THRDOUB =  0.00D+00  THRDIV  =  1.00D-05  THRRED  =  1.00D-07  THRPSP  =  1.00D+00  THRDC   =  1.00D-10  THRCS   =  1.00D-10
 THRNRM  =  1.00D-08  THREQ   =  0.00D+00  THRDE   =  1.00D+00  THRREF  =  1.00D-05  SPARFAC =  1.00D+00  THRDLP  =  1.00D-07
 THRDIA  =  1.00D-10  THRDLS  =  1.00D-07  THRGPS  =  0.00D+00  THRKEX  =  0.00D+00  THRDIS  =  2.00D-01  THRVAR  =  1.00D-10
 THRLOC  =  1.00D-06  THRGAP  =  1.00D-06  THRLOCT = -1.00D+00  THRGAPT = -1.00D+00  THRORB  =  1.00D-06  THRMLTP =  0.00D+00
 THRCPQCI=  1.00D-10  KEXTA   =  0.00D+00  THRCOARS=  0.00D+00  SYMTOL  =  1.00D-06  GRADTOL =  1.00D-06  THROVL  =  1.00D-08
 THRORTH =  1.00D-08  GRID    =  1.00D-06  GRIDMAX =  1.00D-03  DTMAX   =  0.00D+00

 SETTING GEOMTYP        =    XYZ

 Variable memory set to 1000000000 words,  buffer space   230000 words

 SETTING BASIS          =    CC-PVDZ


 Recomputing integrals since basis changed


 Using spherical harmonics

 Library entry C      S cc-pVDZ              selected for orbital group  1
 Library entry C      P cc-pVDZ              selected for orbital group  1
 Library entry C      D cc-pVDZ              selected for orbital group  1
 Library entry O      S cc-pVDZ              selected for orbital group  2
 Library entry O      P cc-pVDZ              selected for orbital group  2
 Library entry O      D cc-pVDZ              selected for orbital group  2
 Library entry H      S cc-pVDZ              selected for orbital group  3
 Library entry H      P cc-pVDZ              selected for orbital group  3

1PROGRAM * SEWARD (Integral evaluation for generally contracted gaussian basis sets)     Author: Roland Lindh, 1990

 Geometry written to block  1 of record 700


 Point group  C1  



 ATOMIC COORDINATES

 NR  ATOM    CHARGE       X              Y              Z

   1  C       6.00    3.357976046    1.344348918   -0.089443368
   2  C       6.00    0.929389944   -0.113370094   -0.371319661
   3  C       6.00    0.851005696   -2.903174955    0.191651343
   4  O       8.00   -1.059697462    1.374274865    0.480848305
   5  O       8.00   -3.473014908    0.174363212   -0.227772083
   6  H       1.00    4.885647037    0.399612664   -1.155455816
   7  H       1.00    3.137751146    3.293580974   -0.802530103
   8  H       1.00    3.959902780    1.463173402    1.920179177
   9  H       1.00   -0.954426605   -3.747048489   -0.415302171
  10  H       1.00    2.421978304   -3.868874797   -0.791650133
  11  H       1.00    1.060889087   -3.247565953    2.261027937
  12  H       1.00   -3.756018502    1.039664959   -1.828505448

 Bond lengths in Bohr (Angstrom)

 1-2  2.846476668  1-6  2.088704811  1-7  2.087222390  1-8  2.101194380  2-3  2.847119878
     ( 1.506290578)     ( 1.105294982)     ( 1.104510519)     ( 1.111904178)     ( 1.506630951)

  2- 4  2.625975338   3- 9  2.083290883   3-10  2.089835619   3-11  2.108311098   4- 5  2.786760112
       ( 1.389606300)       ( 1.102430055)       ( 1.105893380)       ( 1.115670183)       ( 1.474689938)

  5-12  1.841517161
       ( 0.974488912)

 Bond angles

  1-2-3  120.37866573   1-2-4  108.90555081   2-1-6  109.98947225   2-1-7  110.75691756

  2- 1- 8  111.59747914   2- 3- 9  111.29462981   2- 3-10  109.81954434   2- 3-11  110.57309609

  2- 4- 5  109.23946113   3- 2- 4  118.03986083   4- 5-12   98.73110468   6- 1- 7  108.97828868

  6- 1- 8  107.70906937   7- 1- 8  107.70812296   9- 3-10  109.09885360   9- 3-11  107.82247807

 10- 3-11  108.15027076

 NUCLEAR CHARGE:                   41
 NUMBER OF PRIMITIVE AOS:         184
 NUMBER OF SYMMETRY AOS:          179
 NUMBER OF CONTRACTIONS:          105   ( 105A   )
 NUMBER OF CORE ORBITALS:           5   (   5A   )
 NUMBER OF VALENCE ORBITALS:       27   (  27A   )


 NUCLEAR REPULSION ENERGY  183.22171875


 Eigenvalues of metric

         1 0.345E-02 0.435E-02 0.105E-01 0.141E-01 0.182E-01 0.214E-01 0.331E-01 0.346E-01


 Contracted 2-electron integrals neglected if value below      1.0D-16
 AO integral compression algorithm  1   Integral accuracy      1.0D-16

     127.664 MB (compressed) written to integral file ( 93.2%)

     Node minimum: 40.370 MB, node maximum: 44.302 MB


 NUMBER OF SORTED TWO-ELECTRON INTEGRALS:    5164320.     BUFFER LENGTH:  32768
 NUMBER OF SEGMENTS:   1  SEGMENT LENGTH:    5164320      RECORD LENGTH: 524288

 Memory used in sort:       5.72 MW

 SORT1 READ    17075251. AND WROTE     5135901. INTEGRALS IN     15 RECORDS. CPU TIME:     0.21 SEC, REAL TIME:     0.25 SEC
 SORT2 READ    15396626. AND WROTE    15487395. INTEGRALS IN    507 RECORDS. CPU TIME:     0.07 SEC, REAL TIME:     0.10 SEC

 Node minimum:     5160610.  Node maximum:     5164320. integrals

 OPERATOR DM      FOR CENTER  0  COORDINATES:    0.000000    0.000000    0.000000


 **********************************************************************************************************************************
 DATASETS  * FILE   NREC   LENGTH (MB)   RECORD NAMES
              1      18        3.17       500      610      700      900      950      970     1000      129      960     1100   
                                          VAR    BASINP    GEOM    SYMINP    ZMAT    AOBASIS   BASIS     P2S    ABASIS      S 
                                         1400     1410     1200     1210     1080     1600     1650     1700   
                                           T        V       H0       H01     AOSYM     SMH    MOLCAS    OPER   

 PROGRAMS   *        TOTAL       INT
 CPU TIMES  *         0.93      0.88
 REAL TIME  *         1.36 SEC
 DISK USED  *       306.23 MB      
 GA USED    *         0.00 MB       (max)       0.00 MB       (current)
 **********************************************************************************************************************************

1PROGRAM * RHF-SCF (OPEN SHELL)       Authors: W. Meyer, H.-J. Werner


 NUMBER OF ELECTRONS:      21+   20-    SPACE SYMMETRY=1    SPIN SYMMETRY: Doublet 
 CONVERGENCE THRESHOLDS:    1.00E-10 (Density)    1.00E-11 (Energy)
 MAX. NUMBER OF ITERATIONS:      200
 INTERPOLATION TYPE:            DIIS
 INTERPOLATION STEPS:              2 (START)      1 (STEP)
 LEVEL SHIFTS:                 -0.30 (CLOSED)  0.00 (OPEN) 



 Orbital guess generated from atomic densities. Full valence occupancy:   32

 Molecular orbital dump at record        2100.2

 ITERATION    DDIFF          GRAD             ENERGY        2-EL.EN.            DIPOLE MOMENTS         DIIS
    1      0.000D+00      0.000D+00      -267.17823320    555.817137    0.57056    0.04858   -0.74967    0
    2      0.000D+00      0.617D-02      -267.24890611    555.738433    0.41437   -0.13117   -0.59896    1
    3      0.927D-02      0.214D-02      -267.26108315    555.656361    0.39403   -0.05914   -0.62635    2
    4      0.336D-02      0.912D-03      -267.26469160    555.808554    0.37938   -0.09920   -0.64272    3
    5      0.186D-02      0.363D-03      -267.26526077    555.779911    0.38191   -0.09267   -0.63570    4
    6      0.792D-03      0.110D-03      -267.26533724    555.766156    0.38018   -0.09246   -0.63844    5
    7      0.277D-03      0.511D-04      -267.26535739    555.763144    0.37947   -0.09219   -0.63793    6
    8      0.144D-03      0.273D-04      -267.26536345    555.761197    0.37974   -0.09230   -0.63814    7
    9      0.924D-04      0.115D-04      -267.26536437    555.761511    0.37993   -0.09226   -0.63790    8
   10      0.366D-04      0.501D-05      -267.26536452    555.762123    0.38018   -0.09227   -0.63797    9
   11      0.147D-04      0.196D-05      -267.26536455    555.761965    0.38024   -0.09227   -0.63797    9
   12      0.651D-05      0.670D-06      -267.26536455    555.762099    0.38025   -0.09227   -0.63797    9
   13      0.227D-05      0.226D-06      -267.26536455    555.762015    0.38026   -0.09227   -0.63796    9
   14      0.632D-06      0.756D-07      -267.26536455    555.762024    0.38026   -0.09227   -0.63796    9
   15      0.192D-06      0.299D-07      -267.26536455    555.762020    0.38026   -0.09227   -0.63796    9
   16      0.822D-07      0.144D-07      -267.26536455    555.762021    0.38026   -0.09227   -0.63796    9
   17      0.372D-07      0.746D-08      -267.26536455    555.762021    0.38026   -0.09227   -0.63796    9
   18      0.221D-07      0.341D-08      -267.26536455    555.762021    0.38026   -0.09227   -0.63796    9
   19      0.114D-07      0.133D-08      -267.26536455    555.762021    0.38026   -0.09227   -0.63796    9
   20      0.443D-08      0.565D-09      -267.26536455    555.762021    0.38026   -0.09227   -0.63796    9
   21      0.165D-08      0.285D-09      -267.26536455    555.762021    0.38026   -0.09227   -0.63796    9
   22      0.750D-09      0.161D-09      -267.26536455    555.762021    0.38026   -0.09227   -0.63796    9
   23      0.444D-09      0.793D-10      -267.26536455    555.762021    0.38026   -0.09227   -0.63796    9
   24      0.263D-09      0.316D-10      -267.26536455    555.762021    0.38026   -0.09227   -0.63796    9
   25      0.930D-10      0.129D-10      -267.26536455    555.762021    0.38026   -0.09227   -0.63796    0

 Final alpha occupancy:  21
 Final beta  occupancy:  20

 !RHF STATE 1.1 Energy               -267.265364553081
 Nuclear energy                       183.22171875
 One-electron energy                 -728.36809402
 Two-electron energy                  277.88101072
 Virial quotient                       -1.00155798
 !RHF STATE 1.1 Dipole moment           0.38025980    -0.09226980    -0.63796392
 Dipole moment /Debye                   0.96646071    -0.23451108    -1.62143634

 Orbital energies:

         1.1          2.1          3.1          4.1          5.1          6.1          7.1          8.1          9.1         10.1
    -20.630480   -20.628827   -11.279274   -11.237668   -11.232457    -1.470157    -1.240710    -1.023205    -0.945345    -0.768463

        11.1         12.1         13.1         14.1         15.1         16.1         17.1         18.1         19.1         20.1
     -0.704523    -0.643098    -0.626711    -0.588892    -0.544947    -0.543294    -0.539040    -0.516947    -0.493041    -0.469812

        21.1         22.1         23.1
     -0.352293     0.181279     0.183537


 **********************************************************************************************************************************
 DATASETS  * FILE   NREC   LENGTH (MB)   RECORD NAMES
              1      18        3.17       500      610      700      900      950      970     1000      129      960     1100   
                                          VAR    BASINP    GEOM    SYMINP    ZMAT    AOBASIS   BASIS     P2S    ABASIS      S 
                                         1400     1410     1200     1210     1080     1600     1650     1700   
                                           T        V       H0       H01     AOSYM     SMH    MOLCAS    OPER   

              2       3        0.77       700     1000     2100   
                                         GEOM     BASIS     RHF  

 PROGRAMS   *        TOTAL       RHF       INT
 CPU TIMES  *         2.04      1.11      0.88
 REAL TIME  *         2.61 SEC
 DISK USED  *       322.80 MB      
 SF USED    *         0.04 MB      
 GA USED    *         0.00 MB       (max)       0.00 MB       (current)
 **********************************************************************************************************************************


1PROGRAM * CCSD (Unrestricted open-shell coupled cluster)     Authors: C. Hampel, H.-J. Werner, 1991, M. Deegan, P.J. Knowles, 1992


 Convergence thresholds:  THRVAR = 1.00D-08  THRDEN = 1.00D-10

 CCSD(T)     terms to be evaluated (factor= 1.000)


 Number of core orbitals:           5 (   5 )
 Number of closed-shell orbitals:  15 (  15 )
 Number of active  orbitals:        1 (   1 )
 Number of external orbitals:      84 (  84 )

 Memory could be reduced to 24.91 Mwords without degradation in triples

 Number of N-1 electron functions:              31
 Number of N-2 electron functions:             465
 Number of singly external CSFs:              2635
 Number of doubly external CSFs:           2537250
 Total number of CSFs:                     2539885

 Molecular orbitals read from record     2100.2  Type=RHF/CANONICAL (state 1.1)

 Integral transformation finished. Total CPU:   0.92 sec, npass=  1  Memory used:  12.63 MW

 Starting RMP2 calculation

 ITER.      SQ.NORM     CORR.ENERGY   TOTAL ENERGY   ENERGY CHANGE        DEN1      VAR(S)    VAR(P)  DIIS     TIME
   1      1.24304728    -0.78639633  -268.05176089    -0.78639633    -0.00305013  0.20D-04  0.11D-02  1  1     1.25
   2      1.24568917    -0.78968571  -268.05505026    -0.00328938    -0.00000475  0.54D-06  0.19D-05  2  2     1.56
   3      1.24575475    -0.78972779  -268.05509234    -0.00004208    -0.00000003  0.16D-07  0.68D-08  3  3     1.89
   4      1.24575571    -0.78972779  -268.05509234    -0.00000000    -0.00000000  0.27D-09  0.38D-10  4  4     2.24
   5      1.24575579    -0.78972782  -268.05509237    -0.00000003    -0.00000000  0.25D-11  0.65D-12  5  5     2.63
   6      1.24575580    -0.78972783  -268.05509238    -0.00000001    -0.00000000  0.28D-13  0.87D-14  6  6     3.03
   7      1.24575580    -0.78972783  -268.05509238     0.00000000    -0.00000000  0.47D-15  0.12D-15  6  1     3.44
   8      1.24575580    -0.78972783  -268.05509238     0.00000000    -0.00000000  0.60D-17  0.13D-17  6  2     3.86

 Norm of t1 vector:      0.03893422      S-energy:    -0.00227162      T1 diagnostic:  0.00055044
 Norm of t2 vector:      0.49420636      P-energy:    -0.78745621
                                         Alpha-Beta:  -0.59343209
                                         Alpha-Alpha: -0.10094287
                                         Beta-Beta:   -0.09308125

 Spin contamination <S**2-Sz**2-Sz>     0.00104047
  Reference energy                   -267.265364553079
  RHF-RMP2 correlation energy          -0.789727827118
 !RHF-RMP2 energy                    -268.055092380197

 Starting UCCSD calculation

 ITER.      SQ.NORM     CORR.ENERGY   TOTAL ENERGY   ENERGY CHANGE        DEN1      VAR(S)    VAR(P)  DIIS     TIME
   1      1.26282182    -0.80906455  -268.07442911    -0.80906455    -0.02515905  0.38D-02  0.59D-02  1  1     9.20
   2      1.29160189    -0.83647679  -268.10184134    -0.02741224    -0.00201170  0.22D-03  0.66D-03  2  2    14.59
   3      1.30154655    -0.84097611  -268.10634067    -0.00449933    -0.00032473  0.19D-03  0.56D-04  3  3    20.03
   4      1.30646165    -0.84245373  -268.10781829    -0.00147762    -0.00007211  0.43D-04  0.14D-04  4  4    25.48
   5      1.30919236    -0.84284196  -268.10820651    -0.00038823    -0.00002368  0.19D-04  0.32D-05  5  5    30.95
   6      1.31113212    -0.84304650  -268.10841105    -0.00020454    -0.00000646  0.42D-05  0.12D-05  6  6    36.50
   7      1.31208150    -0.84310528  -268.10846983    -0.00005878    -0.00000208  0.14D-05  0.37D-06  6  2    41.96
   8      1.31252300    -0.84314795  -268.10851251    -0.00004267    -0.00000065  0.45D-06  0.11D-06  6  1    47.43
   9      1.31270815    -0.84315254  -268.10851709    -0.00000458    -0.00000022  0.15D-06  0.35D-07  6  4    52.91
  10      1.31277132    -0.84315547  -268.10852002    -0.00000293    -0.00000005  0.35D-07  0.95D-08  6  3    58.38
  11      1.31280081    -0.84315421  -268.10851876     0.00000126    -0.00000002  0.13D-07  0.28D-08  6  5    63.80
  12      1.31281119    -0.84315395  -268.10851850     0.00000026    -0.00000000  0.26D-08  0.95D-09  6  6    69.26
  13      1.31281004    -0.84315303  -268.10851758     0.00000092    -0.00000000  0.96D-09  0.28D-09  6  2    74.82
  14      1.31280483    -0.84315219  -268.10851674     0.00000084    -0.00000000  0.21D-09  0.67D-10  6  1    80.30
  15      1.31280076    -0.84315160  -268.10851615     0.00000059    -0.00000000  0.78D-10  0.19D-10  6  4    85.76
  16      1.31279757    -0.84315122  -268.10851577     0.00000038    -0.00000000  0.28D-10  0.63D-11  6  3    91.21
  17      1.31279537    -0.84315098  -268.10851553     0.00000024    -0.00000000  0.10D-10  0.24D-11  6  5    96.68
  18      1.31279447    -0.84315092  -268.10851547     0.00000006    -0.00000000  0.41D-11  0.87D-12  6  6   102.16
  19      1.31279386    -0.84315088  -268.10851544     0.00000003    -0.00000000  0.16D-11  0.37D-12  6  2   107.62
  20      1.31279354    -0.84315087  -268.10851542     0.00000001    -0.00000000  0.60D-12  0.13D-12  6  1   113.09
  21      1.31279338    -0.84315086  -268.10851541     0.00000001    -0.00000000  0.28D-12  0.58D-13  6  4   118.59
  22      1.31279325    -0.84315085  -268.10851541     0.00000001    -0.00000000  0.74D-13  0.21D-13  6  3   124.10
  23      1.31279320    -0.84315085  -268.10851540     0.00000000    -0.00000000  0.21D-13  0.63D-14  6  5   129.57
  24      1.31279319    -0.84315085  -268.10851540    -0.00000000    -0.00000000  0.67D-14  0.22D-14  6  6   135.04
  25      1.31279319    -0.84315085  -268.10851540    -0.00000000    -0.00000000  0.21D-14  0.52D-15  6  2   140.49
  26      1.31279320    -0.84315085  -268.10851541    -0.00000000    -0.00000000  0.77D-15  0.15D-15  6  1   145.97
  27      1.31279321    -0.84315085  -268.10851541    -0.00000000    -0.00000000  0.20D-15  0.62D-16  6  3   151.42
  28      1.31279322    -0.84315085  -268.10851541    -0.00000000    -0.00000000  0.30D-16  0.11D-16  6  4   157.01
  29      1.31279322    -0.84315085  -268.10851541    -0.00000000    -0.00000000  0.70D-17  0.29D-17  6  5   162.50
  30      1.31279322    -0.84315085  -268.10851541    -0.00000000    -0.00000000  0.15D-17  0.54D-18  6  6   167.99
  31      1.31279322    -0.84315085  -268.10851541    -0.00000000    -0.00000000  0.35D-18  0.10D-18  6  2   173.45

 Norm of t1 vector:      0.13873076      S-energy:    -0.00282127      T1 diagnostic:  0.01617093
                                                                       D1 diagnostic:  0.06282473
 Norm of t2 vector:      0.54179977      P-energy:    -0.84032958
                                         Alpha-Beta:  -0.66488423
                                         Alpha-Alpha: -0.09147424
                                         Beta-Beta:   -0.08397111

 Spin contamination <S**2-Sz**2-Sz>     0.00217167

 Memory could be reduced to 28.85 Mwords without degradation in triples
 

 RESULTS
 =======

  Reference energy                   -267.265364553079
  UCCSD singles energy                 -0.002821273180
  UCCSD pair energy                    -0.840329580299
  UCCSD correlation energy             -0.843150853479
  Triples (T) contribution             -0.024978479659
  Total correlation energy             -0.868129333139
 
  RHF-UCCSD energy                   -268.108515406559
  RHF-UCCSD[T] energy                -268.134830092980
  RHF-UCCSD-T energy                 -268.133072255290
 !RHF-UCCSD(T) energy                -268.133493886218

 Program statistics:

 Available memory in ccsd:               999997692
 Min. memory needed in ccsd:               7337057
 Max. memory used in ccsd:                10523002
 Max. memory used in cckext:              10867977 (31 integral passes)
 Max. memory used in cckint:              12633073 ( 1 integral passes)



 **********************************************************************************************************************************
 DATASETS  * FILE   NREC   LENGTH (MB)   RECORD NAMES
              1      18        3.17       500      610      700      900      950      970     1000      129      960     1100   
                                          VAR    BASINP    GEOM    SYMINP    ZMAT    AOBASIS   BASIS     P2S    ABASIS      S 
                                         1400     1410     1200     1210     1080     1600     1650     1700   
                                           T        V       H0       H01     AOSYM     SMH    MOLCAS    OPER   

              2       3        0.77       700     1000     2100   
                                         GEOM     BASIS     RHF  

 PROGRAMS   *        TOTAL  UCCSD(T)       RHF       INT
 CPU TIMES  *       221.54    219.50      1.11      0.88
 REAL TIME  *       234.48 SEC
 DISK USED  *         1.29 GB      
 SF USED    *       553.73 MB      
 GA USED    *         0.00 MB       (max)       0.00 MB       (current)
 **********************************************************************************************************************************

        UCCSD(T)        RHF-SCF 
   -268.13349389   -267.26536455
 **********************************************************************************************************************************
 Variable memory released
