
Host: ss-sub4.gacrc.uga.edu

Timers On : Wed Aug 24 14:34:59 2022
Timers Off: Wed Aug 24 14:35:01 2022

Wall Time:        2.79 seconds

                                                       Time (seconds)
Module                                       User      System        Wall        Calls

--------------------------------------------------------------------------------------

**************************************************************************************
