
 Primary working directories    : /tmp/320938.301.gen4.q
 Secondary working directories  : /tmp/320938.301.gen4.q
 Wavefunction directory         : /home/vulcan/mel64643/wfu/
 Main file repository           : /tmp/320938.301.gen4.q/

 ARCHNAME  : Linux/x86_64
 FC        : /opt/intel/compilers_and_libraries_2016.1.150/linux/bin/intel64/ifort
 FCVERSION : 16.0.1
 BLASLIB   : -mkl
 id        : ccgc

 Nodes     nprocs
 n061         3
 Number of processes for MPI-2 version of Molpro:   nprocs(total)=    4   nprocs(compute)=    3   nprocs(helper)=    1
 ga_uses_ma=false, calling ma_init with nominal heap.
 GA-space will be limited to   8.0 MW (determined by -G option)

 Using customized tuning parameters: mindgm=10; mindgv=16; mindgc=4; mindgr=1; noblas=0; mincuda=1000; minvec=7
 default implementation of scratch files=sf  

 ***,Frequencies for min3
 memory,1000,m
 gthresh,energy=1.0d-10,orbital=1.0d-10,oneint=1.0d-16,twoint=1.0d-16,optgrad=1.0d-6,compress=1.0d-13
 geomtyp=xyz
 
  geometry = {
  12
  arbitrary comment
     C    1.776964391707    0.711398808326   -0.047331391796
     C    0.491811976407   -0.059992870174   -0.196493901896
     C    0.450332819107   -1.536294019674    0.101417522804
     O   -0.560767745493    0.727234937526    0.254453964104
     O   -1.837840335593    0.092269037726   -0.120531795196
     H    2.585373063107    0.211465914126   -0.611440883996
     H    1.660426393907    1.742887987326   -0.426532369096
     H    2.095123485707    0.774048097326    1.017650404504
     H   -0.504871383593   -1.985040039239   -0.220080275891
     H    1.281781458746   -2.046835050629   -0.415461488944
     H    0.562266781948   -1.718641332606    1.192950800941
     H   -1.988416191373    0.552202428379   -0.966903261788
  }
 
 basis=cc-pvdz
 {rhf;maxit,200}
 {uccsd(t);maxit,200}

 Variables initialized (661), CPU time= 0.00 sec
 Commands  initialized (458), CPU time= 0.01 sec, 486 directives.
 Default parameters read. Elapsed time= 0.04 sec

 Checking input...
 Passed
1


                                         ***  PROGRAM SYSTEM MOLPRO  ***
                         Copyright, University College Cardiff Consultants Limited, 2008

                                    Version 2010.1 linked May 16 2016 07:17:05


 **********************************************************************************************************************************
 LABEL *   Frequencies for min3                                                          
 Linux-4.4.3/n061(x86_64) 64 bit mpp version                                             DATE: 07-Mar-20          TIME: 02:43:50  
 **********************************************************************************************************************************

 SHA1:             9e8077add272b0f3cad6f7df79ec5211205f459d
 **********************************************************************************************************************************

 THRESHOLDS:

 ZERO    =  1.00D-12  ONEINT  =  1.00D-16  TWOINT  =  1.00D-16  PREFAC  =  1.00D-14  LOCALI  =  1.00D-09  EORDER  =  1.00D-04
 ENERGY  =  1.00D-10  ETEST   =  0.00D+00  EDENS   =  0.00D+00  THRDEDEF=  1.00D-06  GRADIENT=  1.00D-02  STEP    =  1.00D-03
 ORBITAL =  1.00D-10  CIVEC   =  1.00D-05  COEFF   =  1.00D-04  PRINTCI =  5.00D-02  PUNCHCI =  9.90D+01  OPTGRAD =  1.00D-06
 OPTENERG=  1.00D-06  OPTSTEP =  3.00D-04  THRGRAD =  1.00D-10  COMPRESS=  1.00D-13  VARMIN  =  1.00D-07  VARMAX  =  1.00D-03
 THRDOUB =  0.00D+00  THRDIV  =  1.00D-05  THRRED  =  1.00D-07  THRPSP  =  1.00D+00  THRDC   =  1.00D-10  THRCS   =  1.00D-10
 THRNRM  =  1.00D-08  THREQ   =  0.00D+00  THRDE   =  1.00D+00  THRREF  =  1.00D-05  SPARFAC =  1.00D+00  THRDLP  =  1.00D-07
 THRDIA  =  1.00D-10  THRDLS  =  1.00D-07  THRGPS  =  0.00D+00  THRKEX  =  0.00D+00  THRDIS  =  2.00D-01  THRVAR  =  1.00D-10
 THRLOC  =  1.00D-06  THRGAP  =  1.00D-06  THRLOCT = -1.00D+00  THRGAPT = -1.00D+00  THRORB  =  1.00D-06  THRMLTP =  0.00D+00
 THRCPQCI=  1.00D-10  KEXTA   =  0.00D+00  THRCOARS=  0.00D+00  SYMTOL  =  1.00D-06  GRADTOL =  1.00D-06  THROVL  =  1.00D-08
 THRORTH =  1.00D-08  GRID    =  1.00D-06  GRIDMAX =  1.00D-03  DTMAX   =  0.00D+00

 SETTING GEOMTYP        =    XYZ

 Variable memory set to 1000000000 words,  buffer space   230000 words

 SETTING BASIS          =    CC-PVDZ


 Recomputing integrals since basis changed


 Using spherical harmonics

 Library entry C      S cc-pVDZ              selected for orbital group  1
 Library entry C      P cc-pVDZ              selected for orbital group  1
 Library entry C      D cc-pVDZ              selected for orbital group  1
 Library entry O      S cc-pVDZ              selected for orbital group  2
 Library entry O      P cc-pVDZ              selected for orbital group  2
 Library entry O      D cc-pVDZ              selected for orbital group  2
 Library entry H      S cc-pVDZ              selected for orbital group  3
 Library entry H      P cc-pVDZ              selected for orbital group  3

1PROGRAM * SEWARD (Integral evaluation for generally contracted gaussian basis sets)     Author: Roland Lindh, 1990

 Geometry written to block  1 of record 700


 Point group  C1  



 ATOMIC COORDINATES

 NR  ATOM    CHARGE       X              Y              Z

   1  C       6.00    3.357976046    1.344348918   -0.089443368
   2  C       6.00    0.929389944   -0.113370094   -0.371319661
   3  C       6.00    0.851005696   -2.903174955    0.191651343
   4  O       8.00   -1.059697462    1.374274865    0.480848305
   5  O       8.00   -3.473014908    0.174363212   -0.227772083
   6  H       1.00    4.885647037    0.399612664   -1.155455816
   7  H       1.00    3.137751146    3.293580974   -0.806029364
   8  H       1.00    3.959209599    1.462738916    1.923080562
   9  H       1.00   -0.954068647   -3.751182034   -0.415891448
  10  H       1.00    2.422215917   -3.867957682   -0.785108432
  11  H       1.00    1.062530231   -3.247761437    2.254350302
  12  H       1.00   -3.757562037    1.043511359   -1.827182360

 Bond lengths in Bohr (Angstrom)

 1-2  2.846476668  1-6  2.088704811  1-7  2.088420481  1-8  2.103746788  2-3  2.847119878
     ( 1.506290578)     ( 1.105294982)     ( 1.105144521)     ( 1.113254854)     ( 1.506630951)

  2- 4  2.625975338   3- 9  2.084830361   3-10  2.086520292   3-11  2.101953726   4- 5  2.786760112
       ( 1.389606300)       ( 1.103244712)       ( 1.104138985)       ( 1.112306006)       ( 1.474689938)

  5-12  1.842416567
       ( 0.974964857)

 Bond angles

  1-2-3  120.37866573   1-2-4  108.90555081   2-1-6  109.98947225   2-1-7  110.73429490

  2- 1- 8  111.55454090   2- 3- 9  111.39391397   2- 3-10  109.86369615   2- 3-11  110.60396034

  2- 4- 5  109.23946113   3- 2- 4  118.03986083   4- 5-12   98.70617320   6- 1- 7  108.91518355

  6- 1- 8  107.73808609   7- 1- 8  107.80970783   9- 3-10  109.11636599   9- 3-11  107.84340478

 10- 3-11  107.92698714

 NUCLEAR CHARGE:                   41
 NUMBER OF PRIMITIVE AOS:         184
 NUMBER OF SYMMETRY AOS:          179
 NUMBER OF CONTRACTIONS:          105   ( 105A   )
 NUMBER OF CORE ORBITALS:           5   (   5A   )
 NUMBER OF VALENCE ORBITALS:       27   (  27A   )


 NUCLEAR REPULSION ENERGY  183.22415422


 Eigenvalues of metric

         1 0.345E-02 0.435E-02 0.105E-01 0.141E-01 0.182E-01 0.213E-01 0.331E-01 0.346E-01


 Contracted 2-electron integrals neglected if value below      1.0D-16
 AO integral compression algorithm  1   Integral accuracy      1.0D-16

     127.402 MB (compressed) written to integral file ( 93.4%)

     Node minimum: 41.157 MB, node maximum: 44.827 MB


 NUMBER OF SORTED TWO-ELECTRON INTEGRALS:    5164320.     BUFFER LENGTH:  32768
 NUMBER OF SEGMENTS:   1  SEGMENT LENGTH:    5164320      RECORD LENGTH: 524288

 Memory used in sort:       5.72 MW

 SORT1 READ    17075332. AND WROTE     5135892. INTEGRALS IN     15 RECORDS. CPU TIME:     0.22 SEC, REAL TIME:     0.25 SEC
 SORT2 READ    15396603. AND WROTE    15487395. INTEGRALS IN    471 RECORDS. CPU TIME:     0.06 SEC, REAL TIME:     0.11 SEC

 Node minimum:     5160610.  Node maximum:     5164320. integrals

 OPERATOR DM      FOR CENTER  0  COORDINATES:    0.000000    0.000000    0.000000


 **********************************************************************************************************************************
 DATASETS  * FILE   NREC   LENGTH (MB)   RECORD NAMES
              1      18        3.17       500      610      700      900      950      970     1000      129      960     1100   
                                          VAR    BASINP    GEOM    SYMINP    ZMAT    AOBASIS   BASIS     P2S    ABASIS      S 
                                         1400     1410     1200     1210     1080     1600     1650     1700   
                                           T        V       H0       H01     AOSYM     SMH    MOLCAS    OPER   

 PROGRAMS   *        TOTAL       INT
 CPU TIMES  *         0.94      0.90
 REAL TIME  *         1.36 SEC
 DISK USED  *       306.22 MB      
 GA USED    *         0.00 MB       (max)       0.00 MB       (current)
 **********************************************************************************************************************************

1PROGRAM * RHF-SCF (OPEN SHELL)       Authors: W. Meyer, H.-J. Werner


 NUMBER OF ELECTRONS:      21+   20-    SPACE SYMMETRY=1    SPIN SYMMETRY: Doublet 
 CONVERGENCE THRESHOLDS:    1.00E-10 (Density)    1.00E-11 (Energy)
 MAX. NUMBER OF ITERATIONS:      200
 INTERPOLATION TYPE:            DIIS
 INTERPOLATION STEPS:              2 (START)      1 (STEP)
 LEVEL SHIFTS:                 -0.30 (CLOSED)  0.00 (OPEN) 



 Orbital guess generated from atomic densities. Full valence occupancy:   32

 Molecular orbital dump at record        2100.2

 ITERATION    DDIFF          GRAD             ENERGY        2-EL.EN.            DIPOLE MOMENTS         DIIS
    1      0.000D+00      0.000D+00      -267.17825179    555.824730    0.56949    0.05040   -0.74941    0
    2      0.000D+00      0.617D-02      -267.24893942    555.744481    0.41395   -0.13071   -0.59841    1
    3      0.928D-02      0.214D-02      -267.26111369    555.662897    0.39387   -0.05885   -0.62556    2
    4      0.336D-02      0.912D-03      -267.26472055    555.815013    0.37939   -0.09905   -0.64183    3
    5      0.186D-02      0.364D-03      -267.26528952    555.786355    0.38199   -0.09256   -0.63475    4
    6      0.792D-03      0.110D-03      -267.26536594    555.772601    0.38027   -0.09237   -0.63747    5
    7      0.277D-03      0.511D-04      -267.26538609    555.769591    0.37957   -0.09211   -0.63696    6
    8      0.144D-03      0.273D-04      -267.26539216    555.767643    0.37985   -0.09223   -0.63717    7
    9      0.925D-04      0.115D-04      -267.26539308    555.767957    0.38004   -0.09219   -0.63692    8
   10      0.366D-04      0.501D-05      -267.26539323    555.768570    0.38029   -0.09220   -0.63699    9
   11      0.147D-04      0.196D-05      -267.26539326    555.768412    0.38034   -0.09220   -0.63700    9
   12      0.651D-05      0.671D-06      -267.26539326    555.768546    0.38036   -0.09220   -0.63699    9
   13      0.227D-05      0.227D-06      -267.26539326    555.768462    0.38036   -0.09220   -0.63699    9
   14      0.633D-06      0.760D-07      -267.26539326    555.768471    0.38037   -0.09220   -0.63699    9
   15      0.193D-06      0.302D-07      -267.26539326    555.768467    0.38037   -0.09220   -0.63699    9
   16      0.830D-07      0.146D-07      -267.26539326    555.768468    0.38037   -0.09220   -0.63699    9
   17      0.379D-07      0.759D-08      -267.26539326    555.768468    0.38037   -0.09220   -0.63699    9
   18      0.226D-07      0.344D-08      -267.26539326    555.768468    0.38037   -0.09220   -0.63699    9
   19      0.115D-07      0.134D-08      -267.26539326    555.768468    0.38037   -0.09220   -0.63699    9
   20      0.445D-08      0.571D-09      -267.26539326    555.768468    0.38037   -0.09220   -0.63699    9
   21      0.167D-08      0.288D-09      -267.26539326    555.768468    0.38037   -0.09220   -0.63699    9
   22      0.761D-09      0.163D-09      -267.26539326    555.768468    0.38037   -0.09220   -0.63699    9
   23      0.449D-09      0.801D-10      -267.26539326    555.768468    0.38037   -0.09220   -0.63699    9
   24      0.265D-09      0.319D-10      -267.26539326    555.768468    0.38037   -0.09220   -0.63699    9
   25      0.938D-10      0.130D-10      -267.26539326    555.768468    0.38037   -0.09220   -0.63699    0

 Final alpha occupancy:  21
 Final beta  occupancy:  20

 !RHF STATE 1.1 Energy               -267.265393263968
 Nuclear energy                       183.22415422
 One-electron energy                 -728.37378173
 Two-electron energy                  277.88423424
 Virial quotient                       -1.00155005
 !RHF STATE 1.1 Dipole moment           0.38036790    -0.09219941    -0.63698957
 Dipole moment /Debye                   0.96673544    -0.23433218    -1.61895995

 Orbital energies:

         1.1          2.1          3.1          4.1          5.1          6.1          7.1          8.1          9.1         10.1
    -20.630417   -20.628834   -11.279234   -11.237891   -11.231972    -1.470070    -1.240581    -1.023256    -0.945412    -0.768459

        11.1         12.1         13.1         14.1         15.1         16.1         17.1         18.1         19.1         20.1
     -0.704529    -0.642941    -0.626782    -0.588810    -0.545197    -0.543418    -0.539084    -0.516902    -0.492930    -0.469813

        21.1         22.1         23.1
     -0.352248     0.181252     0.183546


 **********************************************************************************************************************************
 DATASETS  * FILE   NREC   LENGTH (MB)   RECORD NAMES
              1      18        3.17       500      610      700      900      950      970     1000      129      960     1100   
                                          VAR    BASINP    GEOM    SYMINP    ZMAT    AOBASIS   BASIS     P2S    ABASIS      S 
                                         1400     1410     1200     1210     1080     1600     1650     1700   
                                           T        V       H0       H01     AOSYM     SMH    MOLCAS    OPER   

              2       3        0.77       700     1000     2100   
                                         GEOM     BASIS     RHF  

 PROGRAMS   *        TOTAL       RHF       INT
 CPU TIMES  *         2.06      1.11      0.90
 REAL TIME  *         2.62 SEC
 DISK USED  *       322.79 MB      
 SF USED    *         0.04 MB      
 GA USED    *         0.00 MB       (max)       0.00 MB       (current)
 **********************************************************************************************************************************


1PROGRAM * CCSD (Unrestricted open-shell coupled cluster)     Authors: C. Hampel, H.-J. Werner, 1991, M. Deegan, P.J. Knowles, 1992


 Convergence thresholds:  THRVAR = 1.00D-08  THRDEN = 1.00D-10

 CCSD(T)     terms to be evaluated (factor= 1.000)


 Number of core orbitals:           5 (   5 )
 Number of closed-shell orbitals:  15 (  15 )
 Number of active  orbitals:        1 (   1 )
 Number of external orbitals:      84 (  84 )

 Memory could be reduced to 24.91 Mwords without degradation in triples

 Number of N-1 electron functions:              31
 Number of N-2 electron functions:             465
 Number of singly external CSFs:              2635
 Number of doubly external CSFs:           2537250
 Total number of CSFs:                     2539885

 Molecular orbitals read from record     2100.2  Type=RHF/CANONICAL (state 1.1)

 Integral transformation finished. Total CPU:   0.91 sec, npass=  1  Memory used:  12.63 MW

 Starting RMP2 calculation

 ITER.      SQ.NORM     CORR.ENERGY   TOTAL ENERGY   ENERGY CHANGE        DEN1      VAR(S)    VAR(P)  DIIS     TIME
   1      1.24302154    -0.78638094  -268.05177420    -0.78638094    -0.00304952  0.20D-04  0.11D-02  1  1     1.24
   2      1.24566245    -0.78966961  -268.05506287    -0.00328867    -0.00000474  0.54D-06  0.19D-05  2  2     1.55
   3      1.24572795    -0.78971165  -268.05510491    -0.00004204    -0.00000003  0.16D-07  0.67D-08  3  3     1.88
   4      1.24572890    -0.78971165  -268.05510491    -0.00000000    -0.00000000  0.27D-09  0.38D-10  4  4     2.24
   5      1.24572899    -0.78971168  -268.05510495    -0.00000003    -0.00000000  0.25D-11  0.65D-12  5  5     2.63
   6      1.24572900    -0.78971169  -268.05510495    -0.00000001    -0.00000000  0.28D-13  0.86D-14  6  6     3.04
   7      1.24572900    -0.78971169  -268.05510495     0.00000000    -0.00000000  0.47D-15  0.12D-15  6  1     3.46
   8      1.24572900    -0.78971169  -268.05510495     0.00000000    -0.00000000  0.59D-17  0.13D-17  6  2     3.88

 Norm of t1 vector:      0.03892667      S-energy:    -0.00227145      T1 diagnostic:  0.00054995
 Norm of t2 vector:      0.49417984      P-energy:    -0.78744024
                                         Alpha-Beta:  -0.59341661
                                         Alpha-Alpha: -0.10094237
                                         Beta-Beta:   -0.09308126

 Spin contamination <S**2-Sz**2-Sz>     0.00103994
  Reference energy                   -267.265393263969
  RHF-RMP2 correlation energy          -0.789711686701
 !RHF-RMP2 energy                    -268.055104950670

 Starting UCCSD calculation

 ITER.      SQ.NORM     CORR.ENERGY   TOTAL ENERGY   ENERGY CHANGE        DEN1      VAR(S)    VAR(P)  DIIS     TIME
   1      1.26278841    -0.80904754  -268.07444080    -0.80904754    -0.02515510  0.38D-02  0.59D-02  1  1     9.28
   2      1.29155816    -0.83645528  -268.10184855    -0.02740775    -0.00201095  0.22D-03  0.66D-03  2  2    14.69
   3      1.30149710    -0.84095283  -268.10634609    -0.00449755    -0.00032457  0.19D-03  0.56D-04  3  3    20.08
   4      1.30640922    -0.84242977  -268.10782303    -0.00147694    -0.00007207  0.43D-04  0.14D-04  4  4    25.49
   5      1.30913800    -0.84281775  -268.10821102    -0.00038798    -0.00002367  0.19D-04  0.32D-05  5  5    30.95
   6      1.31107622    -0.84302214  -268.10841541    -0.00020439    -0.00000646  0.42D-05  0.12D-05  6  6    36.37
   7      1.31202545    -0.84308092  -268.10847418    -0.00005878    -0.00000208  0.14D-05  0.37D-06  6  2    41.88
   8      1.31246722    -0.84312362  -268.10851688    -0.00004270    -0.00000065  0.45D-06  0.11D-06  6  1    47.40
   9      1.31265255    -0.84312821  -268.10852147    -0.00000459    -0.00000022  0.15D-06  0.35D-07  6  4    52.93
  10      1.31271576    -0.84313114  -268.10852440    -0.00000293    -0.00000005  0.35D-07  0.95D-08  6  3    58.39
  11      1.31274529    -0.84312988  -268.10852314     0.00000126    -0.00000002  0.13D-07  0.28D-08  6  5    63.92
  12      1.31275568    -0.84312961  -268.10852288     0.00000026    -0.00000000  0.26D-08  0.95D-09  6  6    69.38
  13      1.31275453    -0.84312870  -268.10852196     0.00000092    -0.00000000  0.96D-09  0.28D-09  6  2    74.94
  14      1.31274933    -0.84312785  -268.10852112     0.00000084    -0.00000000  0.21D-09  0.67D-10  6  1    80.48
  15      1.31274525    -0.84312727  -268.10852053     0.00000059    -0.00000000  0.78D-10  0.19D-10  6  4    86.01
  16      1.31274207    -0.84312688  -268.10852015     0.00000038    -0.00000000  0.28D-10  0.63D-11  6  3    91.52
  17      1.31273987    -0.84312665  -268.10851991     0.00000024    -0.00000000  0.10D-10  0.24D-11  6  5    96.99
  18      1.31273896    -0.84312659  -268.10851985     0.00000006    -0.00000000  0.41D-11  0.87D-12  6  6   102.48
  19      1.31273835    -0.84312655  -268.10851982     0.00000003    -0.00000000  0.16D-11  0.37D-12  6  2   107.95
  20      1.31273803    -0.84312654  -268.10851980     0.00000001    -0.00000000  0.60D-12  0.13D-12  6  1   113.41
  21      1.31273787    -0.84312653  -268.10851979     0.00000001    -0.00000000  0.28D-12  0.58D-13  6  4   118.87
  22      1.31273775    -0.84312652  -268.10851978     0.00000001    -0.00000000  0.74D-13  0.21D-13  6  3   124.37
  23      1.31273769    -0.84312652  -268.10851978     0.00000000    -0.00000000  0.21D-13  0.63D-14  6  5   129.87
  24      1.31273768    -0.84312652  -268.10851978    -0.00000000    -0.00000000  0.67D-14  0.22D-14  6  6   135.42
  25      1.31273769    -0.84312652  -268.10851978    -0.00000000    -0.00000000  0.21D-14  0.52D-15  6  2   140.91
  26      1.31273770    -0.84312652  -268.10851978    -0.00000000    -0.00000000  0.77D-15  0.15D-15  6  1   146.38
  27      1.31273771    -0.84312652  -268.10851979    -0.00000000    -0.00000000  0.20D-15  0.62D-16  6  3   151.85
  28      1.31273771    -0.84312652  -268.10851979    -0.00000000    -0.00000000  0.30D-16  0.11D-16  6  4   157.32
  29      1.31273771    -0.84312652  -268.10851979    -0.00000000    -0.00000000  0.71D-17  0.29D-17  6  5   162.77
  30      1.31273771    -0.84312652  -268.10851979    -0.00000000    -0.00000000  0.15D-17  0.54D-18  6  6   168.24
  31      1.31273771    -0.84312652  -268.10851979    -0.00000000    -0.00000000  0.35D-18  0.10D-18  6  2   173.77

 Norm of t1 vector:      0.13869796      S-energy:    -0.00282081      T1 diagnostic:  0.01616733
                                                                       D1 diagnostic:  0.06281529
 Norm of t2 vector:      0.54175695      P-energy:    -0.84030571
                                         Alpha-Beta:  -0.66485995
                                         Alpha-Alpha: -0.09147445
                                         Beta-Beta:   -0.08397132

 Spin contamination <S**2-Sz**2-Sz>     0.00217097

 Memory could be reduced to 28.85 Mwords without degradation in triples
 

 RESULTS
 =======

  Reference energy                   -267.265393263969
  UCCSD singles energy                 -0.002820809924
  UCCSD pair energy                    -0.840305712344
  UCCSD correlation energy             -0.843126522268
  Triples (T) contribution             -0.024974086827
  Total correlation energy             -0.868100609095
 
  RHF-UCCSD energy                   -268.108519786237
  RHF-UCCSD[T] energy                -268.134829620874
  RHF-UCCSD-T energy                 -268.133072386264
 !RHF-UCCSD(T) energy                -268.133493873064

 Program statistics:

 Available memory in ccsd:               999997692
 Min. memory needed in ccsd:               7337057
 Max. memory used in ccsd:                10523002
 Max. memory used in cckext:              10867977 (31 integral passes)
 Max. memory used in cckint:              12633073 ( 1 integral passes)



 **********************************************************************************************************************************
 DATASETS  * FILE   NREC   LENGTH (MB)   RECORD NAMES
              1      18        3.17       500      610      700      900      950      970     1000      129      960     1100   
                                          VAR    BASINP    GEOM    SYMINP    ZMAT    AOBASIS   BASIS     P2S    ABASIS      S 
                                         1400     1410     1200     1210     1080     1600     1650     1700   
                                           T        V       H0       H01     AOSYM     SMH    MOLCAS    OPER   

              2       3        0.77       700     1000     2100   
                                         GEOM     BASIS     RHF  

 PROGRAMS   *        TOTAL  UCCSD(T)       RHF       INT
 CPU TIMES  *       222.00    219.95      1.11      0.90
 REAL TIME  *       236.93 SEC
 DISK USED  *         1.29 GB      
 SF USED    *       553.73 MB      
 GA USED    *         0.00 MB       (max)       0.00 MB       (current)
 **********************************************************************************************************************************

        UCCSD(T)        RHF-SCF 
   -268.13349387   -267.26539326
 **********************************************************************************************************************************
 Variable memory released
