
 Primary working directories    : /tmp/320938.404.gen6.q
 Secondary working directories  : /tmp/320938.404.gen6.q
 Wavefunction directory         : /home/vulcan/mel64643/wfu/
 Main file repository           : /tmp/320938.404.gen6.q/

 ARCHNAME  : Linux/x86_64
 FC        : /opt/intel/compilers_and_libraries_2016.1.150/linux/bin/intel64/ifort
 FCVERSION : 16.0.1
 BLASLIB   : -mkl
 id        : ccgc

 Nodes     nprocs
 n083         3
 Number of processes for MPI-2 version of Molpro:   nprocs(total)=    4   nprocs(compute)=    3   nprocs(helper)=    1
 ga_uses_ma=false, calling ma_init with nominal heap.
 GA-space will be limited to   8.0 MW (determined by -G option)

 Using customized tuning parameters: mindgm=10; mindgv=16; mindgc=4; mindgr=1; noblas=0; mincuda=1000; minvec=7
 default implementation of scratch files=sf  

 ***,Frequencies for min3
 memory,1000,m
 gthresh,energy=1.0d-10,orbital=1.0d-10,oneint=1.0d-16,twoint=1.0d-16,optgrad=1.0d-6,compress=1.0d-13
 geomtyp=xyz
 
  geometry = {
  12
  arbitrary comment
     C    1.776964391707    0.711398808326   -0.047331391796
     C    0.491811976407   -0.059992870174   -0.196493901896
     C    0.449756435841   -1.536153987093    0.101396702431
     O   -0.560654843319    0.727228597351    0.254464895361
     O   -1.837638147381    0.092084808680   -0.120523721073
     H    2.585556314590    0.211919819274   -0.611448490150
     H    1.660391514743    1.743207439618   -0.426517559536
     H    2.093236937857    0.773907737599    1.016995237499
     H   -0.504139875942   -1.982539728608   -0.219766501381
     H    1.282564995265   -2.047360692804   -0.417259582604
     H    0.562908241459   -1.718971686369    1.194772989316
     H   -1.986972335801    0.551282243837   -0.966646891952
  }
 
 basis=cc-pvdz
 {rhf;maxit,200}
 {uccsd(t);maxit,200}

 Variables initialized (661), CPU time= 0.00 sec
 Commands  initialized (458), CPU time= 0.01 sec, 486 directives.
 Default parameters read. Elapsed time= 0.06 sec

 Checking input...
 Passed
1


                                         ***  PROGRAM SYSTEM MOLPRO  ***
                         Copyright, University College Cardiff Consultants Limited, 2008

                                    Version 2010.1 linked May 16 2016 07:17:05


 **********************************************************************************************************************************
 LABEL *   Frequencies for min3                                                          
 Linux-4.4.3/n083(x86_64) 64 bit mpp version                                             DATE: 07-Mar-20          TIME: 03:20:04  
 **********************************************************************************************************************************

 SHA1:             9e8077add272b0f3cad6f7df79ec5211205f459d
 **********************************************************************************************************************************

 THRESHOLDS:

 ZERO    =  1.00D-12  ONEINT  =  1.00D-16  TWOINT  =  1.00D-16  PREFAC  =  1.00D-14  LOCALI  =  1.00D-09  EORDER  =  1.00D-04
 ENERGY  =  1.00D-10  ETEST   =  0.00D+00  EDENS   =  0.00D+00  THRDEDEF=  1.00D-06  GRADIENT=  1.00D-02  STEP    =  1.00D-03
 ORBITAL =  1.00D-10  CIVEC   =  1.00D-05  COEFF   =  1.00D-04  PRINTCI =  5.00D-02  PUNCHCI =  9.90D+01  OPTGRAD =  1.00D-06
 OPTENERG=  1.00D-06  OPTSTEP =  3.00D-04  THRGRAD =  1.00D-10  COMPRESS=  1.00D-13  VARMIN  =  1.00D-07  VARMAX  =  1.00D-03
 THRDOUB =  0.00D+00  THRDIV  =  1.00D-05  THRRED  =  1.00D-07  THRPSP  =  1.00D+00  THRDC   =  1.00D-10  THRCS   =  1.00D-10
 THRNRM  =  1.00D-08  THREQ   =  0.00D+00  THRDE   =  1.00D+00  THRREF  =  1.00D-05  SPARFAC =  1.00D+00  THRDLP  =  1.00D-07
 THRDIA  =  1.00D-10  THRDLS  =  1.00D-07  THRGPS  =  0.00D+00  THRKEX  =  0.00D+00  THRDIS  =  2.00D-01  THRVAR  =  1.00D-10
 THRLOC  =  1.00D-06  THRGAP  =  1.00D-06  THRLOCT = -1.00D+00  THRGAPT = -1.00D+00  THRORB  =  1.00D-06  THRMLTP =  0.00D+00
 THRCPQCI=  1.00D-10  KEXTA   =  0.00D+00  THRCOARS=  0.00D+00  SYMTOL  =  1.00D-06  GRADTOL =  1.00D-06  THROVL  =  1.00D-08
 THRORTH =  1.00D-08  GRID    =  1.00D-06  GRIDMAX =  1.00D-03  DTMAX   =  0.00D+00

 SETTING GEOMTYP        =    XYZ

 Variable memory set to 1000000000 words,  buffer space   230000 words

 SETTING BASIS          =    CC-PVDZ


 Recomputing integrals since basis changed


 Using spherical harmonics

 Library entry C      S cc-pVDZ              selected for orbital group  1
 Library entry C      P cc-pVDZ              selected for orbital group  1
 Library entry C      D cc-pVDZ              selected for orbital group  1
 Library entry O      S cc-pVDZ              selected for orbital group  2
 Library entry O      P cc-pVDZ              selected for orbital group  2
 Library entry O      D cc-pVDZ              selected for orbital group  2
 Library entry H      S cc-pVDZ              selected for orbital group  3
 Library entry H      P cc-pVDZ              selected for orbital group  3

1PROGRAM * SEWARD (Integral evaluation for generally contracted gaussian basis sets)     Author: Roland Lindh, 1990

 Geometry written to block  1 of record 700


 Point group  C1  



 ATOMIC COORDINATES

 NR  ATOM    CHARGE       X              Y              Z

   1  C       6.00    3.357976046    1.344348918   -0.089443368
   2  C       6.00    0.929389944   -0.113370094   -0.371319661
   3  C       6.00    0.849916490   -2.902910331    0.191611998
   4  O       8.00   -1.059484108    1.374262884    0.480868962
   5  O       8.00   -3.472632827    0.174015069   -0.227756825
   6  H       1.00    4.885993332    0.400470420   -1.155470190
   7  H       1.00    3.137685234    3.294184651   -0.806001378
   8  H       1.00    3.955644541    1.462473675    1.921842476
   9  H       1.00   -0.952686297   -3.746457132   -0.415298500
  10  H       1.00    2.423696587   -3.868951002   -0.788506337
  11  H       1.00    1.063742413   -3.248385715    2.257793739
  12  H       1.00   -3.754833545    1.041772462   -1.826697892

 Bond lengths in Bohr (Angstrom)

 1-2  2.846476668  1-6  2.088577657  1-7  2.088981285  1-8  2.101530831  2-3  2.846883000
     ( 1.506290578)     ( 1.105227696)     ( 1.105441286)     ( 1.112082220)     ( 1.506505600)

  2- 4  2.625813649   3- 9  2.080694203   3-10  2.090610036   3-11  2.105749689   4- 5  2.786760137
       ( 1.389520738)       ( 1.101055951)       ( 1.106303184)       ( 1.114314743)       ( 1.474689952)

  5-12  1.840992306
       ( 0.974211170)

 Bond angles

  1-2-3  120.40007158   1-2-4  108.90265503   2-1-6  110.01214894   2-1-7  110.73597074

  2- 1- 8  111.48168517   2- 3- 9  111.33116504   2- 3-10  109.81966592   2- 3-11  110.60627658

  2- 4- 5  109.22945197   3- 2- 4  118.02209534   4- 5-12   98.66034818   6- 1- 7  108.89853636

  6- 1- 8  107.80783259   7- 1- 8  107.80712379   9- 3-10  109.15275408   9- 3-11  107.91851376

 10- 3-11  107.92418087

 NUCLEAR CHARGE:                   41
 NUMBER OF PRIMITIVE AOS:         184
 NUMBER OF SYMMETRY AOS:          179
 NUMBER OF CONTRACTIONS:          105   ( 105A   )
 NUMBER OF CORE ORBITALS:           5   (   5A   )
 NUMBER OF VALENCE ORBITALS:       27   (  27A   )


 NUCLEAR REPULSION ENERGY  183.23949234


 Eigenvalues of metric

         1 0.345E-02 0.435E-02 0.105E-01 0.141E-01 0.182E-01 0.214E-01 0.331E-01 0.346E-01


 Contracted 2-electron integrals neglected if value below      1.0D-16
 AO integral compression algorithm  1   Integral accuracy      1.0D-16

     127.402 MB (compressed) written to integral file ( 93.4%)

     Node minimum: 33.817 MB, node maximum: 56.623 MB


 NUMBER OF SORTED TWO-ELECTRON INTEGRALS:    5164320.     BUFFER LENGTH:  32768
 NUMBER OF SEGMENTS:   1  SEGMENT LENGTH:    5164320      RECORD LENGTH: 524288

 Memory used in sort:       5.72 MW

 SORT1 READ    17075332. AND WROTE     5135967. INTEGRALS IN     15 RECORDS. CPU TIME:     0.31 SEC, REAL TIME:     0.34 SEC
 SORT2 READ    15396824. AND WROTE    15487395. INTEGRALS IN    423 RECORDS. CPU TIME:     0.08 SEC, REAL TIME:     0.13 SEC

 Node minimum:     5160610.  Node maximum:     5164320. integrals

 OPERATOR DM      FOR CENTER  0  COORDINATES:    0.000000    0.000000    0.000000


 **********************************************************************************************************************************
 DATASETS  * FILE   NREC   LENGTH (MB)   RECORD NAMES
              1      18        3.17       500      610      700      900      950      970     1000      129      960     1100   
                                          VAR    BASINP    GEOM    SYMINP    ZMAT    AOBASIS   BASIS     P2S    ABASIS      S 
                                         1400     1410     1200     1210     1080     1600     1650     1700   
                                           T        V       H0       H01     AOSYM     SMH    MOLCAS    OPER   

 PROGRAMS   *        TOTAL       INT
 CPU TIMES  *         1.17      1.09
 REAL TIME  *         1.53 SEC
 DISK USED  *       318.02 MB      
 GA USED    *         0.00 MB       (max)       0.00 MB       (current)
 **********************************************************************************************************************************

1PROGRAM * RHF-SCF (OPEN SHELL)       Authors: W. Meyer, H.-J. Werner


 NUMBER OF ELECTRONS:      21+   20-    SPACE SYMMETRY=1    SPIN SYMMETRY: Doublet 
 CONVERGENCE THRESHOLDS:    1.00E-10 (Density)    1.00E-11 (Energy)
 MAX. NUMBER OF ITERATIONS:      200
 INTERPOLATION TYPE:            DIIS
 INTERPOLATION STEPS:              2 (START)      1 (STEP)
 LEVEL SHIFTS:                 -0.30 (CLOSED)  0.00 (OPEN) 



 Orbital guess generated from atomic densities. Full valence occupancy:   32

 Molecular orbital dump at record        2100.2

 ITERATION    DDIFF          GRAD             ENERGY        2-EL.EN.            DIPOLE MOMENTS         DIIS
    1      0.000D+00      0.000D+00      -267.17825551    555.852135    0.57266    0.05032   -0.74909    0
    2      0.000D+00      0.617D-02      -267.24894495    555.772052    0.41498   -0.13059   -0.59830    1
    3      0.928D-02      0.214D-02      -267.26112363    555.690143    0.39449   -0.05862   -0.62556    2
    4      0.336D-02      0.912D-03      -267.26473366    555.842272    0.37962   -0.09882   -0.64190    3
    5      0.186D-02      0.364D-03      -267.26530354    555.813583    0.38206   -0.09233   -0.63485    4
    6      0.793D-03      0.110D-03      -267.26538017    555.799832    0.38029   -0.09214   -0.63758    5
    7      0.277D-03      0.512D-04      -267.26540039    555.796814    0.37957   -0.09188   -0.63707    6
    8      0.144D-03      0.273D-04      -267.26540648    555.794867    0.37984   -0.09200   -0.63728    7
    9      0.927D-04      0.115D-04      -267.26540740    555.795181    0.38003   -0.09195   -0.63704    8
   10      0.367D-04      0.502D-05      -267.26540756    555.795795    0.38029   -0.09197   -0.63710    9
   11      0.147D-04      0.197D-05      -267.26540759    555.795636    0.38034   -0.09196   -0.63711    9
   12      0.651D-05      0.671D-06      -267.26540759    555.795771    0.38036   -0.09196   -0.63710    9
   13      0.227D-05      0.226D-06      -267.26540759    555.795686    0.38036   -0.09196   -0.63710    9
   14      0.632D-06      0.758D-07      -267.26540759    555.795695    0.38036   -0.09196   -0.63710    9
   15      0.193D-06      0.301D-07      -267.26540759    555.795691    0.38036   -0.09196   -0.63710    9
   16      0.827D-07      0.146D-07      -267.26540759    555.795693    0.38036   -0.09196   -0.63710    9
   17      0.377D-07      0.755D-08      -267.26540759    555.795692    0.38036   -0.09196   -0.63710    9
   18      0.224D-07      0.343D-08      -267.26540759    555.795693    0.38036   -0.09196   -0.63710    9
   19      0.115D-07      0.133D-08      -267.26540759    555.795693    0.38036   -0.09196   -0.63710    9
   20      0.444D-08      0.569D-09      -267.26540759    555.795693    0.38036   -0.09196   -0.63710    9
   21      0.166D-08      0.288D-09      -267.26540759    555.795693    0.38036   -0.09196   -0.63710    9
   22      0.758D-09      0.162D-09      -267.26540759    555.795693    0.38036   -0.09196   -0.63710    9
   23      0.448D-09      0.798D-10      -267.26540759    555.795693    0.38036   -0.09196   -0.63710    9
   24      0.264D-09      0.318D-10      -267.26540759    555.795693    0.38036   -0.09196   -0.63710    9
   25      0.935D-10      0.129D-10      -267.26540759    555.795693    0.38036   -0.09196   -0.63710    0

 Final alpha occupancy:  21
 Final beta  occupancy:  20

 !RHF STATE 1.1 Energy               -267.265407588317
 Nuclear energy                       183.23949234
 One-electron energy                 -728.40274623
 Two-electron energy                  277.89784630
 Virial quotient                       -1.00154702
 !RHF STATE 1.1 Dipole moment           0.38036459    -0.09196474    -0.63710124
 Dipole moment /Debye                   0.96672705    -0.23373575    -1.61924376

 Orbital energies:

         1.1          2.1          3.1          4.1          5.1          6.1          7.1          8.1          9.1         10.1
    -20.630446   -20.628827   -11.279208   -11.237791   -11.232191    -1.470242    -1.240767    -1.023242    -0.945419    -0.768443

        11.1         12.1         13.1         14.1         15.1         16.1         17.1         18.1         19.1         20.1
     -0.704649    -0.643088    -0.626806    -0.588859    -0.545204    -0.543272    -0.539142    -0.516936    -0.493010    -0.469868

        21.1         22.1         23.1
     -0.352230     0.181299     0.183583


 **********************************************************************************************************************************
 DATASETS  * FILE   NREC   LENGTH (MB)   RECORD NAMES
              1      18        3.17       500      610      700      900      950      970     1000      129      960     1100   
                                          VAR    BASINP    GEOM    SYMINP    ZMAT    AOBASIS   BASIS     P2S    ABASIS      S 
                                         1400     1410     1200     1210     1080     1600     1650     1700   
                                           T        V       H0       H01     AOSYM     SMH    MOLCAS    OPER   

              2       3        0.77       700     1000     2100   
                                         GEOM     BASIS     RHF  

 PROGRAMS   *        TOTAL       RHF       INT
 CPU TIMES  *         2.52      1.34      1.09
 REAL TIME  *         3.01 SEC
 DISK USED  *       334.59 MB      
 SF USED    *         0.04 MB      
 GA USED    *         0.00 MB       (max)       0.00 MB       (current)
 **********************************************************************************************************************************


1PROGRAM * CCSD (Unrestricted open-shell coupled cluster)     Authors: C. Hampel, H.-J. Werner, 1991, M. Deegan, P.J. Knowles, 1992


 Convergence thresholds:  THRVAR = 1.00D-08  THRDEN = 1.00D-10

 CCSD(T)     terms to be evaluated (factor= 1.000)


 Number of core orbitals:           5 (   5 )
 Number of closed-shell orbitals:  15 (  15 )
 Number of active  orbitals:        1 (   1 )
 Number of external orbitals:      84 (  84 )

 Memory could be reduced to 24.91 Mwords without degradation in triples

 Number of N-1 electron functions:              31
 Number of N-2 electron functions:             465
 Number of singly external CSFs:              2635
 Number of doubly external CSFs:           2537250
 Total number of CSFs:                     2539885

 Molecular orbitals read from record     2100.2  Type=RHF/CANONICAL (state 1.1)

 Integral transformation finished. Total CPU:   0.89 sec, npass=  1  Memory used:  12.63 MW

 Starting RMP2 calculation

 ITER.      SQ.NORM     CORR.ENERGY   TOTAL ENERGY   ENERGY CHANGE        DEN1      VAR(S)    VAR(P)  DIIS     TIME
   1      1.24301187    -0.78636637  -268.05177396    -0.78636637    -0.00304929  0.20D-04  0.11D-02  1  1     1.21
   2      1.24565263    -0.78965479  -268.05506238    -0.00328842    -0.00000474  0.54D-06  0.19D-05  2  2     1.49
   3      1.24571814    -0.78969684  -268.05510443    -0.00004204    -0.00000003  0.16D-07  0.68D-08  3  3     1.80
   4      1.24571909    -0.78969684  -268.05510443    -0.00000000    -0.00000000  0.27D-09  0.38D-10  4  4     2.13
   5      1.24571917    -0.78969687  -268.05510446    -0.00000003    -0.00000000  0.25D-11  0.65D-12  5  5     2.49
   6      1.24571919    -0.78969688  -268.05510447    -0.00000001    -0.00000000  0.28D-13  0.86D-14  6  6     2.87
   7      1.24571919    -0.78969688  -268.05510447     0.00000000    -0.00000000  0.47D-15  0.12D-15  6  1     3.26
   8      1.24571919    -0.78969688  -268.05510447     0.00000000    -0.00000000  0.59D-17  0.13D-17  6  2     3.65

 Norm of t1 vector:      0.03892917      S-energy:    -0.00227158      T1 diagnostic:  0.00055001
 Norm of t2 vector:      0.49416971      P-energy:    -0.78742530
                                         Alpha-Beta:  -0.59340407
                                         Alpha-Alpha: -0.10094167
                                         Beta-Beta:   -0.09307956

 Spin contamination <S**2-Sz**2-Sz>     0.00104013
  Reference energy                   -267.265407588318
  RHF-RMP2 correlation energy          -0.789696878024
 !RHF-RMP2 energy                    -268.055104466342

 Starting UCCSD calculation

 ITER.      SQ.NORM     CORR.ENERGY   TOTAL ENERGY   ENERGY CHANGE        DEN1      VAR(S)    VAR(P)  DIIS     TIME
   1      1.26278210    -0.80903650  -268.07444409    -0.80903650    -0.02515395  0.38D-02  0.59D-02  1  1    10.31
   2      1.29155061    -0.83644305  -268.10185064    -0.02740655    -0.00201065  0.22D-03  0.66D-03  2  2    15.98
   3      1.30148826    -0.84094014  -268.10634772    -0.00449709    -0.00032450  0.19D-03  0.56D-04  3  3    21.66
   4      1.30639937    -0.84241679  -268.10782437    -0.00147665    -0.00007205  0.43D-04  0.14D-04  4  4    27.38
   5      1.30912777    -0.84280470  -268.10821229    -0.00038791    -0.00002367  0.19D-04  0.32D-05  5  5    33.14
   6      1.31106623    -0.84300910  -268.10841669    -0.00020440    -0.00000646  0.42D-05  0.12D-05  6  6    38.89
   7      1.31201552    -0.84306787  -268.10847546    -0.00005877    -0.00000208  0.14D-05  0.37D-06  6  2    44.63
   8      1.31245725    -0.84311056  -268.10851815    -0.00004269    -0.00000065  0.45D-06  0.11D-06  6  1    50.36
   9      1.31264250    -0.84311515  -268.10852274    -0.00000458    -0.00000022  0.15D-06  0.35D-07  6  4    55.97
  10      1.31270565    -0.84311807  -268.10852566    -0.00000292    -0.00000005  0.35D-07  0.95D-08  6  3    60.79
  11      1.31273520    -0.84311682  -268.10852441     0.00000125    -0.00000002  0.13D-07  0.28D-08  6  5    65.59
  12      1.31274559    -0.84311656  -268.10852415     0.00000026    -0.00000000  0.26D-08  0.95D-09  6  6    70.41
  13      1.31274444    -0.84311565  -268.10852323     0.00000091    -0.00000000  0.96D-09  0.28D-09  6  2    75.26
  14      1.31273923    -0.84311480  -268.10852239     0.00000084    -0.00000000  0.21D-09  0.67D-10  6  1    80.05
  15      1.31273516    -0.84311421  -268.10852180     0.00000059    -0.00000000  0.78D-10  0.19D-10  6  4    84.86
  16      1.31273197    -0.84311383  -268.10852142     0.00000038    -0.00000000  0.28D-10  0.63D-11  6  3    89.67
  17      1.31272977    -0.84311359  -268.10852118     0.00000024    -0.00000000  0.10D-10  0.24D-11  6  5    94.48
  18      1.31272887    -0.84311353  -268.10852112     0.00000006    -0.00000000  0.41D-11  0.87D-12  6  6    99.29
  19      1.31272826    -0.84311350  -268.10852109     0.00000003    -0.00000000  0.16D-11  0.37D-12  6  2   104.09
  20      1.31272794    -0.84311349  -268.10852107     0.00000001    -0.00000000  0.60D-12  0.13D-12  6  1   108.91
  21      1.31272778    -0.84311348  -268.10852106     0.00000001    -0.00000000  0.28D-12  0.58D-13  6  4   113.74
  22      1.31272766    -0.84311347  -268.10852106     0.00000001    -0.00000000  0.73D-13  0.21D-13  6  3   118.54
  23      1.31272760    -0.84311346  -268.10852105     0.00000000    -0.00000000  0.21D-13  0.62D-14  6  5   123.35
  24      1.31272760    -0.84311347  -268.10852105    -0.00000000    -0.00000000  0.67D-14  0.22D-14  6  6   128.15
  25      1.31272760    -0.84311347  -268.10852106    -0.00000000    -0.00000000  0.21D-14  0.52D-15  6  2   132.97
  26      1.31272761    -0.84311347  -268.10852106    -0.00000000    -0.00000000  0.77D-15  0.15D-15  6  1   137.78
  27      1.31272762    -0.84311347  -268.10852106    -0.00000000    -0.00000000  0.20D-15  0.62D-16  6  3   142.60
  28      1.31272762    -0.84311347  -268.10852106    -0.00000000    -0.00000000  0.30D-16  0.11D-16  6  4   147.43
  29      1.31272762    -0.84311347  -268.10852106    -0.00000000    -0.00000000  0.71D-17  0.29D-17  6  5   152.31
  30      1.31272762    -0.84311347  -268.10852106    -0.00000000    -0.00000000  0.15D-17  0.54D-18  6  6   157.13
  31      1.31272762    -0.84311347  -268.10852106    -0.00000000    -0.00000000  0.35D-18  0.10D-18  6  2   161.92

 Norm of t1 vector:      0.13869173      S-energy:    -0.00282103      T1 diagnostic:  0.01616610
                                                                       D1 diagnostic:  0.06280445
 Norm of t2 vector:      0.54174923      P-energy:    -0.84029244
                                         Alpha-Beta:  -0.66484551
                                         Alpha-Alpha: -0.09147553
                                         Beta-Beta:   -0.08397140

 Spin contamination <S**2-Sz**2-Sz>     0.00217132

 Memory could be reduced to 28.85 Mwords without degradation in triples
 

 RESULTS
 =======

  Reference energy                   -267.265407588318
  UCCSD singles energy                 -0.002821030879
  UCCSD pair energy                    -0.840292438058
  UCCSD correlation energy             -0.843113468937
  Triples (T) contribution             -0.024973624557
  Total correlation energy             -0.868087093495
 
  RHF-UCCSD energy                   -268.108521057255
  RHF-UCCSD[T] energy                -268.134830163936
  RHF-UCCSD-T energy                 -268.133073323737
 !RHF-UCCSD(T) energy                -268.133494681813

 Program statistics:

 Available memory in ccsd:               999997692
 Min. memory needed in ccsd:               7337057
 Max. memory used in ccsd:                10523002
 Max. memory used in cckext:              10867977 (31 integral passes)
 Max. memory used in cckint:              12633073 ( 1 integral passes)



 **********************************************************************************************************************************
 DATASETS  * FILE   NREC   LENGTH (MB)   RECORD NAMES
              1      18        3.17       500      610      700      900      950      970     1000      129      960     1100   
                                          VAR    BASINP    GEOM    SYMINP    ZMAT    AOBASIS   BASIS     P2S    ABASIS      S 
                                         1400     1410     1200     1210     1080     1600     1650     1700   
                                           T        V       H0       H01     AOSYM     SMH    MOLCAS    OPER   

              2       3        0.77       700     1000     2100   
                                         GEOM     BASIS     RHF  

 PROGRAMS   *        TOTAL  UCCSD(T)       RHF       INT
 CPU TIMES  *       201.01    198.50      1.34      1.09
 REAL TIME  *       211.87 SEC
 DISK USED  *         1.30 GB      
 SF USED    *       553.73 MB      
 GA USED    *         0.00 MB       (max)       0.00 MB       (current)
 **********************************************************************************************************************************

        UCCSD(T)        RHF-SCF 
   -268.13349468   -267.26540759
 **********************************************************************************************************************************
 Variable memory released
