
 Primary working directories    : /tmp/320938.222.gen6.q
 Secondary working directories  : /tmp/320938.222.gen6.q
 Wavefunction directory         : /home/vulcan/mel64643/wfu/
 Main file repository           : /tmp/320938.222.gen6.q/

 ARCHNAME  : Linux/x86_64
 FC        : /opt/intel/compilers_and_libraries_2016.1.150/linux/bin/intel64/ifort
 FCVERSION : 16.0.1
 BLASLIB   : -mkl
 id        : ccgc

 Nodes     nprocs
 n090         3
 Number of processes for MPI-2 version of Molpro:   nprocs(total)=    4   nprocs(compute)=    3   nprocs(helper)=    1
 ga_uses_ma=false, calling ma_init with nominal heap.
 GA-space will be limited to   8.0 MW (determined by -G option)

 Using customized tuning parameters: mindgm=10; mindgv=16; mindgc=4; mindgr=1; noblas=0; mincuda=1000; minvec=7
 default implementation of scratch files=sf  

 ***,Frequencies for min3
 memory,1000,m
 gthresh,energy=1.0d-10,orbital=1.0d-10,oneint=1.0d-16,twoint=1.0d-16,optgrad=1.0d-6,compress=1.0d-13
 geomtyp=xyz
 
  geometry = {
  12
  arbitrary comment
     C    1.776964391707    0.711398808326   -0.047331391796
     C    0.491811976407   -0.059992870174   -0.196493901896
     C    0.450332819107   -1.536294019674    0.101417522804
     O   -0.560767745493    0.727234937526    0.254453964104
     O   -1.837840335593    0.092269037726   -0.120531795196
     H    2.585373063107    0.211465914126   -0.611440883996
     H    1.660426393907    1.742887987326   -0.426532369096
     H    2.093127767088    0.773543922655    1.016994025790
     H   -0.504638211977   -1.982547211184   -0.221655265711
     H    1.281522102301   -2.048338760929   -0.416642354987
     H    0.563081535080   -1.718223083880    1.195582150396
     H   -1.987209041058    0.551299236567   -0.966122376665
  }
 
 basis=cc-pvdz
 {rhf;maxit,200}
 {uccsd(t);maxit,200}

 Variables initialized (661), CPU time= 0.00 sec
 Commands  initialized (458), CPU time= 0.01 sec, 486 directives.
 Default parameters read. Elapsed time= 0.06 sec

 Checking input...
 Passed
1


                                         ***  PROGRAM SYSTEM MOLPRO  ***
                         Copyright, University College Cardiff Consultants Limited, 2008

                                    Version 2010.1 linked May 16 2016 07:17:05


 **********************************************************************************************************************************
 LABEL *   Frequencies for min3                                                          
 Linux-4.4.3/n090(x86_64) 64 bit mpp version                                             DATE: 07-Mar-20          TIME: 02:15:20  
 **********************************************************************************************************************************

 SHA1:             9e8077add272b0f3cad6f7df79ec5211205f459d
 **********************************************************************************************************************************

 THRESHOLDS:

 ZERO    =  1.00D-12  ONEINT  =  1.00D-16  TWOINT  =  1.00D-16  PREFAC  =  1.00D-14  LOCALI  =  1.00D-09  EORDER  =  1.00D-04
 ENERGY  =  1.00D-10  ETEST   =  0.00D+00  EDENS   =  0.00D+00  THRDEDEF=  1.00D-06  GRADIENT=  1.00D-02  STEP    =  1.00D-03
 ORBITAL =  1.00D-10  CIVEC   =  1.00D-05  COEFF   =  1.00D-04  PRINTCI =  5.00D-02  PUNCHCI =  9.90D+01  OPTGRAD =  1.00D-06
 OPTENERG=  1.00D-06  OPTSTEP =  3.00D-04  THRGRAD =  1.00D-10  COMPRESS=  1.00D-13  VARMIN  =  1.00D-07  VARMAX  =  1.00D-03
 THRDOUB =  0.00D+00  THRDIV  =  1.00D-05  THRRED  =  1.00D-07  THRPSP  =  1.00D+00  THRDC   =  1.00D-10  THRCS   =  1.00D-10
 THRNRM  =  1.00D-08  THREQ   =  0.00D+00  THRDE   =  1.00D+00  THRREF  =  1.00D-05  SPARFAC =  1.00D+00  THRDLP  =  1.00D-07
 THRDIA  =  1.00D-10  THRDLS  =  1.00D-07  THRGPS  =  0.00D+00  THRKEX  =  0.00D+00  THRDIS  =  2.00D-01  THRVAR  =  1.00D-10
 THRLOC  =  1.00D-06  THRGAP  =  1.00D-06  THRLOCT = -1.00D+00  THRGAPT = -1.00D+00  THRORB  =  1.00D-06  THRMLTP =  0.00D+00
 THRCPQCI=  1.00D-10  KEXTA   =  0.00D+00  THRCOARS=  0.00D+00  SYMTOL  =  1.00D-06  GRADTOL =  1.00D-06  THROVL  =  1.00D-08
 THRORTH =  1.00D-08  GRID    =  1.00D-06  GRIDMAX =  1.00D-03  DTMAX   =  0.00D+00

 SETTING GEOMTYP        =    XYZ

 Variable memory set to 1000000000 words,  buffer space   230000 words

 SETTING BASIS          =    CC-PVDZ


 Recomputing integrals since basis changed


 Using spherical harmonics

 Library entry C      S cc-pVDZ              selected for orbital group  1
 Library entry C      P cc-pVDZ              selected for orbital group  1
 Library entry C      D cc-pVDZ              selected for orbital group  1
 Library entry O      S cc-pVDZ              selected for orbital group  2
 Library entry O      P cc-pVDZ              selected for orbital group  2
 Library entry O      D cc-pVDZ              selected for orbital group  2
 Library entry H      S cc-pVDZ              selected for orbital group  3
 Library entry H      P cc-pVDZ              selected for orbital group  3

1PROGRAM * SEWARD (Integral evaluation for generally contracted gaussian basis sets)     Author: Roland Lindh, 1990

 Geometry written to block  1 of record 700


 Point group  C1  



 ATOMIC COORDINATES

 NR  ATOM    CHARGE       X              Y              Z

   1  C       6.00    3.357976046    1.344348918   -0.089443368
   2  C       6.00    0.929389944   -0.113370094   -0.371319661
   3  C       6.00    0.851005696   -2.903174955    0.191651343
   4  O       8.00   -1.059697462    1.374274865    0.480848305
   5  O       8.00   -3.473014908    0.174363212   -0.227772083
   6  H       1.00    4.885647037    0.399612664   -1.155455816
   7  H       1.00    3.137751146    3.293580974   -0.806029364
   8  H       1.00    3.955438238    1.461786164    1.921840186
   9  H       1.00   -0.953628016   -3.746471272   -0.418867748
  10  H       1.00    2.421725805   -3.870799283   -0.787339946
  11  H       1.00    1.064069891   -3.246971061    2.259322832
  12  H       1.00   -3.755280853    1.041804574   -1.825706701

 Bond lengths in Bohr (Angstrom)

 1-2  2.846476668  1-6  2.088704811  1-7  2.088420481  1-8  2.101431444  2-3  2.847119878
     ( 1.506290578)     ( 1.105294982)     ( 1.105144521)     ( 1.112029626)     ( 1.506630951)

  2- 4  2.625975338   3- 9  2.083407083   3-10  2.088512017   3-11  2.106859630   4- 5  2.786760112
       ( 1.389606300)       ( 1.102491545)       ( 1.105192960)       ( 1.114902099)       ( 1.474689938)

  5-12  1.839979246
       ( 0.973675082)

 Bond angles

  1-2-3  120.37866573   1-2-4  108.90555081   2-1-6  109.98947225   2-1-7  110.73429490

  2- 1- 8  111.46727210   2- 3- 9  111.25523634   2- 3-10  109.91270484   2- 3-11  110.55864295

  2- 4- 5  109.23946113   3- 2- 4  118.03986083   4- 5-12   98.66689524   6- 1- 7  108.91518355

  6- 1- 8  107.80679544   7- 1- 8  107.83187814   9- 3-10  109.05945798   9- 3-11  108.00714063

 10- 3-11  107.96119764

 NUCLEAR CHARGE:                   41
 NUMBER OF PRIMITIVE AOS:         184
 NUMBER OF SYMMETRY AOS:          179
 NUMBER OF CONTRACTIONS:          105   ( 105A   )
 NUMBER OF CORE ORBITALS:           5   (   5A   )
 NUMBER OF VALENCE ORBITALS:       27   (  27A   )


 NUCLEAR REPULSION ENERGY  183.23214850


 Eigenvalues of metric

         1 0.345E-02 0.435E-02 0.105E-01 0.141E-01 0.182E-01 0.214E-01 0.331E-01 0.346E-01


 Contracted 2-electron integrals neglected if value below      1.0D-16
 AO integral compression algorithm  1   Integral accuracy      1.0D-16

     127.664 MB (compressed) written to integral file ( 93.2%)

     Node minimum: 30.671 MB, node maximum: 49.283 MB


 NUMBER OF SORTED TWO-ELECTRON INTEGRALS:    5164320.     BUFFER LENGTH:  32768
 NUMBER OF SEGMENTS:   1  SEGMENT LENGTH:    5164320      RECORD LENGTH: 524288

 Memory used in sort:       5.72 MW

 SORT1 READ    17075494. AND WROTE     5135953. INTEGRALS IN     15 RECORDS. CPU TIME:     0.30 SEC, REAL TIME:     0.33 SEC
 SORT2 READ    15396789. AND WROTE    15487395. INTEGRALS IN    546 RECORDS. CPU TIME:     0.08 SEC, REAL TIME:     0.13 SEC

 Node minimum:     5160610.  Node maximum:     5164320. integrals

 OPERATOR DM      FOR CENTER  0  COORDINATES:    0.000000    0.000000    0.000000


 **********************************************************************************************************************************
 DATASETS  * FILE   NREC   LENGTH (MB)   RECORD NAMES
              1      18        3.17       500      610      700      900      950      970     1000      129      960     1100   
                                          VAR    BASINP    GEOM    SYMINP    ZMAT    AOBASIS   BASIS     P2S    ABASIS      S 
                                         1400     1410     1200     1210     1080     1600     1650     1700   
                                           T        V       H0       H01     AOSYM     SMH    MOLCAS    OPER   

 PROGRAMS   *        TOTAL       INT
 CPU TIMES  *         0.98      0.92
 REAL TIME  *         1.41 SEC
 DISK USED  *       316.24 MB      
 GA USED    *         0.00 MB       (max)       0.00 MB       (current)
 **********************************************************************************************************************************

1PROGRAM * RHF-SCF (OPEN SHELL)       Authors: W. Meyer, H.-J. Werner


 NUMBER OF ELECTRONS:      21+   20-    SPACE SYMMETRY=1    SPIN SYMMETRY: Doublet 
 CONVERGENCE THRESHOLDS:    1.00E-10 (Density)    1.00E-11 (Energy)
 MAX. NUMBER OF ITERATIONS:      200
 INTERPOLATION TYPE:            DIIS
 INTERPOLATION STEPS:              2 (START)      1 (STEP)
 LEVEL SHIFTS:                 -0.30 (CLOSED)  0.00 (OPEN) 



 Orbital guess generated from atomic densities. Full valence occupancy:   32

 Molecular orbital dump at record        2100.2

 ITERATION    DDIFF          GRAD             ENERGY        2-EL.EN.            DIPOLE MOMENTS         DIIS
    1      0.000D+00      0.000D+00      -267.17826628    555.834763    0.57187    0.04956   -0.74859    0
    2      0.000D+00      0.617D-02      -267.24895055    555.756867    0.41521   -0.13095   -0.59835    1
    3      0.928D-02      0.214D-02      -267.26113087    555.674721    0.39484   -0.05888   -0.62568    2
    4      0.336D-02      0.912D-03      -267.26474261    555.827066    0.38009   -0.09900   -0.64213    3
    5      0.186D-02      0.364D-03      -267.26531274    555.798432    0.38257   -0.09250   -0.63511    4
    6      0.793D-03      0.110D-03      -267.26538942    555.784686    0.38081   -0.09229   -0.63786    5
    7      0.277D-03      0.512D-04      -267.26540967    555.781673    0.38008   -0.09203   -0.63735    6
    8      0.144D-03      0.273D-04      -267.26541577    555.779728    0.38034   -0.09215   -0.63757    7
    9      0.927D-04      0.115D-04      -267.26541669    555.780042    0.38053   -0.09210   -0.63733    8
   10      0.367D-04      0.502D-05      -267.26541685    555.780655    0.38079   -0.09212   -0.63739    9
   11      0.147D-04      0.197D-05      -267.26541687    555.780496    0.38084   -0.09211   -0.63740    9
   12      0.651D-05      0.671D-06      -267.26541688    555.780631    0.38086   -0.09211   -0.63739    9
   13      0.228D-05      0.227D-06      -267.26541688    555.780546    0.38086   -0.09211   -0.63739    9
   14      0.633D-06      0.760D-07      -267.26541688    555.780555    0.38086   -0.09211   -0.63739    9
   15      0.193D-06      0.302D-07      -267.26541688    555.780551    0.38086   -0.09211   -0.63739    9
   16      0.829D-07      0.146D-07      -267.26541688    555.780553    0.38086   -0.09211   -0.63739    9
   17      0.377D-07      0.756D-08      -267.26541688    555.780553    0.38086   -0.09211   -0.63739    9
   18      0.224D-07      0.343D-08      -267.26541688    555.780553    0.38086   -0.09211   -0.63739    9
   19      0.115D-07      0.134D-08      -267.26541688    555.780553    0.38086   -0.09211   -0.63739    9
   20      0.445D-08      0.571D-09      -267.26541688    555.780553    0.38086   -0.09211   -0.63739    9
   21      0.167D-08      0.288D-09      -267.26541688    555.780553    0.38086   -0.09211   -0.63739    9
   22      0.760D-09      0.163D-09      -267.26541688    555.780553    0.38086   -0.09211   -0.63739    9
   23      0.449D-09      0.800D-10      -267.26541688    555.780553    0.38086   -0.09211   -0.63739    9
   24      0.265D-09      0.319D-10      -267.26541688    555.780553    0.38086   -0.09211   -0.63739    9
   25      0.938D-10      0.130D-10      -267.26541688    555.780553    0.38086   -0.09211   -0.63739    0

 Final alpha occupancy:  21
 Final beta  occupancy:  20

 !RHF STATE 1.1 Energy               -267.265416875442
 Nuclear energy                       183.23214850
 One-electron energy                 -728.38784169
 Two-electron energy                  277.89027631
 Virial quotient                       -1.00154847
 !RHF STATE 1.1 Dipole moment           0.38086237    -0.09211470    -0.63739030
 Dipole moment /Debye                   0.96799219    -0.23411688    -1.61997844

 Orbital energies:

         1.1          2.1          3.1          4.1          5.1          6.1          7.1          8.1          9.1         10.1
    -20.630473   -20.628780   -11.279218   -11.237755   -11.232301    -1.470272    -1.240849    -1.023243    -0.945363    -0.768447

        11.1         12.1         13.1         14.1         15.1         16.1         17.1         18.1         19.1         20.1
     -0.704743    -0.642948    -0.626761    -0.588969    -0.545159    -0.543407    -0.539168    -0.516832    -0.493014    -0.469824

        21.1         22.1         23.1
     -0.352235     0.181330     0.183601


 **********************************************************************************************************************************
 DATASETS  * FILE   NREC   LENGTH (MB)   RECORD NAMES
              1      18        3.17       500      610      700      900      950      970     1000      129      960     1100   
                                          VAR    BASINP    GEOM    SYMINP    ZMAT    AOBASIS   BASIS     P2S    ABASIS      S 
                                         1400     1410     1200     1210     1080     1600     1650     1700   
                                           T        V       H0       H01     AOSYM     SMH    MOLCAS    OPER   

              2       3        0.77       700     1000     2100   
                                         GEOM     BASIS     RHF  

 PROGRAMS   *        TOTAL       RHF       INT
 CPU TIMES  *         2.32      1.34      0.92
 REAL TIME  *         2.90 SEC
 DISK USED  *       332.81 MB      
 SF USED    *         0.04 MB      
 GA USED    *         0.00 MB       (max)       0.00 MB       (current)
 **********************************************************************************************************************************


1PROGRAM * CCSD (Unrestricted open-shell coupled cluster)     Authors: C. Hampel, H.-J. Werner, 1991, M. Deegan, P.J. Knowles, 1992


 Convergence thresholds:  THRVAR = 1.00D-08  THRDEN = 1.00D-10

 CCSD(T)     terms to be evaluated (factor= 1.000)


 Number of core orbitals:           5 (   5 )
 Number of closed-shell orbitals:  15 (  15 )
 Number of active  orbitals:        1 (   1 )
 Number of external orbitals:      84 (  84 )

 Memory could be reduced to 24.91 Mwords without degradation in triples

 Number of N-1 electron functions:              31
 Number of N-2 electron functions:             465
 Number of singly external CSFs:              2635
 Number of doubly external CSFs:           2537250
 Total number of CSFs:                     2539885

 Molecular orbitals read from record     2100.2  Type=RHF/CANONICAL (state 1.1)

 Integral transformation finished. Total CPU:   0.88 sec, npass=  1  Memory used:  12.63 MW

 Starting RMP2 calculation

 ITER.      SQ.NORM     CORR.ENERGY   TOTAL ENERGY   ENERGY CHANGE        DEN1      VAR(S)    VAR(P)  DIIS     TIME
   1      1.24300912    -0.78635347  -268.05177034    -0.78635347    -0.00304931  0.20D-04  0.11D-02  1  1     1.20
   2      1.24564994    -0.78964192  -268.05505880    -0.00328846    -0.00000474  0.54D-06  0.19D-05  2  2     1.46
   3      1.24571546    -0.78968397  -268.05510085    -0.00004205    -0.00000003  0.16D-07  0.68D-08  3  3     1.74
   4      1.24571641    -0.78968397  -268.05510085    -0.00000000    -0.00000000  0.27D-09  0.38D-10  4  4     2.04
   5      1.24571649    -0.78968400  -268.05510088    -0.00000003    -0.00000000  0.25D-11  0.65D-12  5  5     2.37
   6      1.24571651    -0.78968401  -268.05510089    -0.00000001    -0.00000000  0.28D-13  0.86D-14  6  6     2.72
   7      1.24571651    -0.78968401  -268.05510089     0.00000000    -0.00000000  0.47D-15  0.12D-15  6  1     3.07
   8      1.24571651    -0.78968401  -268.05510089     0.00000000    -0.00000000  0.59D-17  0.13D-17  6  2     3.42

 Norm of t1 vector:      0.03892930      S-energy:    -0.00227153      T1 diagnostic:  0.00055000
 Norm of t2 vector:      0.49416699      P-energy:    -0.78741248
                                         Alpha-Beta:  -0.59339611
                                         Alpha-Alpha: -0.10093961
                                         Beta-Beta:   -0.09307676

 Spin contamination <S**2-Sz**2-Sz>     0.00104023
  Reference energy                   -267.265416875442
  RHF-RMP2 correlation energy          -0.789684009719
 !RHF-RMP2 energy                    -268.055100885160

 Starting UCCSD calculation

 ITER.      SQ.NORM     CORR.ENERGY   TOTAL ENERGY   ENERGY CHANGE        DEN1      VAR(S)    VAR(P)  DIIS     TIME
   1      1.26278343    -0.80902874  -268.07444561    -0.80902874    -0.02515320  0.38D-02  0.59D-02  1  1     9.14
   2      1.29155186    -0.83643489  -268.10185176    -0.02740615    -0.00201043  0.22D-03  0.66D-03  2  2    14.84
   3      1.30148860    -0.84093161  -268.10634848    -0.00449672    -0.00032446  0.19D-03  0.56D-04  3  3    20.56
   4      1.30639880    -0.84240808  -268.10782496    -0.00147648    -0.00007204  0.43D-04  0.14D-04  4  4    26.31
   5      1.30912666    -0.84279594  -268.10821282    -0.00038786    -0.00002366  0.19D-04  0.32D-05  5  5    32.11
   6      1.31106472    -0.84300031  -268.10841719    -0.00020437    -0.00000646  0.42D-05  0.12D-05  6  6    37.93
   7      1.31201376    -0.84305908  -268.10847595    -0.00005876    -0.00000208  0.14D-05  0.37D-06  6  2    43.72
   8      1.31245531    -0.84310175  -268.10851863    -0.00004268    -0.00000065  0.45D-06  0.11D-06  6  1    49.53
   9      1.31264047    -0.84310633  -268.10852321    -0.00000458    -0.00000022  0.15D-06  0.35D-07  6  4    55.33
  10      1.31270363    -0.84310926  -268.10852613    -0.00000293    -0.00000005  0.35D-07  0.95D-08  6  3    61.15
  11      1.31273317    -0.84310801  -268.10852488     0.00000125    -0.00000002  0.13D-07  0.28D-08  6  5    66.97
  12      1.31274356    -0.84310775  -268.10852462     0.00000026    -0.00000000  0.26D-08  0.95D-09  6  6    72.79
  13      1.31274241    -0.84310683  -268.10852371     0.00000092    -0.00000000  0.96D-09  0.28D-09  6  2    78.61
  14      1.31273720    -0.84310599  -268.10852286     0.00000084    -0.00000000  0.21D-09  0.67D-10  6  1    84.42
  15      1.31273313    -0.84310540  -268.10852228     0.00000059    -0.00000000  0.78D-10  0.19D-10  6  4    90.22
  16      1.31272995    -0.84310502  -268.10852189     0.00000038    -0.00000000  0.28D-10  0.63D-11  6  3    95.74
  17      1.31272775    -0.84310478  -268.10852166     0.00000024    -0.00000000  0.10D-10  0.24D-11  6  5   100.58
  18      1.31272685    -0.84310472  -268.10852160     0.00000006    -0.00000000  0.41D-11  0.87D-12  6  6   106.15
  19      1.31272624    -0.84310469  -268.10852156     0.00000003    -0.00000000  0.16D-11  0.37D-12  6  2   111.95
  20      1.31272592    -0.84310467  -268.10852155     0.00000001    -0.00000000  0.60D-12  0.13D-12  6  1   118.17
  21      1.31272576    -0.84310466  -268.10852154     0.00000001    -0.00000000  0.28D-12  0.58D-13  6  4   124.46
  22      1.31272563    -0.84310466  -268.10852153     0.00000001    -0.00000000  0.73D-13  0.21D-13  6  3   130.97
  23      1.31272558    -0.84310465  -268.10852153     0.00000000    -0.00000000  0.21D-13  0.62D-14  6  5   137.45
  24      1.31272557    -0.84310465  -268.10852153    -0.00000000    -0.00000000  0.67D-14  0.22D-14  6  6   143.90
  25      1.31272557    -0.84310465  -268.10852153    -0.00000000    -0.00000000  0.21D-14  0.52D-15  6  2   150.28
  26      1.31272558    -0.84310466  -268.10852153    -0.00000000    -0.00000000  0.77D-15  0.15D-15  6  1   156.78
  27      1.31272559    -0.84310466  -268.10852153    -0.00000000    -0.00000000  0.20D-15  0.62D-16  6  3   162.91
  28      1.31272560    -0.84310466  -268.10852153    -0.00000000    -0.00000000  0.30D-16  0.11D-16  6  4   168.72
  29      1.31272560    -0.84310466  -268.10852153    -0.00000000    -0.00000000  0.71D-17  0.29D-17  6  5   174.90
  30      1.31272560    -0.84310466  -268.10852153    -0.00000000    -0.00000000  0.15D-17  0.54D-18  6  6   181.23
  31      1.31272560    -0.84310466  -268.10852153    -0.00000000    -0.00000000  0.35D-18  0.10D-18  6  2   186.90

 Norm of t1 vector:      0.13867980      S-energy:    -0.00282099      T1 diagnostic:  0.01616440
                                                                       D1 diagnostic:  0.06279418
 Norm of t2 vector:      0.54175041      P-energy:    -0.84028366
                                         Alpha-Beta:  -0.66483948
                                         Alpha-Alpha: -0.09147462
                                         Beta-Beta:   -0.08396957

 Spin contamination <S**2-Sz**2-Sz>     0.00217089

 Memory could be reduced to 28.85 Mwords without degradation in triples
 

 RESULTS
 =======

  Reference energy                   -267.265416875442
  UCCSD singles energy                 -0.002820992223
  UCCSD pair energy                    -0.840283664467
  UCCSD correlation energy             -0.843104656690
  Triples (T) contribution             -0.024973393454
  Total correlation energy             -0.868078050143
 
  RHF-UCCSD energy                   -268.108521532132
  RHF-UCCSD[T] energy                -268.134830289489
  RHF-UCCSD-T energy                 -268.133073583092
 !RHF-UCCSD(T) energy                -268.133494925585

 Program statistics:

 Available memory in ccsd:               999997692
 Min. memory needed in ccsd:               7337057
 Max. memory used in ccsd:                10523002
 Max. memory used in cckext:              10867977 (31 integral passes)
 Max. memory used in cckint:              12633073 ( 1 integral passes)



 **********************************************************************************************************************************
 DATASETS  * FILE   NREC   LENGTH (MB)   RECORD NAMES
              1      18        3.17       500      610      700      900      950      970     1000      129      960     1100   
                                          VAR    BASINP    GEOM    SYMINP    ZMAT    AOBASIS   BASIS     P2S    ABASIS      S 
                                         1400     1410     1200     1210     1080     1600     1650     1700   
                                           T        V       H0       H01     AOSYM     SMH    MOLCAS    OPER   

              2       3        0.77       700     1000     2100   
                                         GEOM     BASIS     RHF  

 PROGRAMS   *        TOTAL  UCCSD(T)       RHF       INT
 CPU TIMES  *       226.37    224.05      1.34      0.92
 REAL TIME  *       235.61 SEC
 DISK USED  *         1.30 GB      
 SF USED    *       553.73 MB      
 GA USED    *         0.00 MB       (max)       0.00 MB       (current)
 **********************************************************************************************************************************

        UCCSD(T)        RHF-SCF 
   -268.13349493   -267.26541688
 **********************************************************************************************************************************
 Variable memory released
