
 Primary working directories    : /tmp/320938.137.gen6.q
 Secondary working directories  : /tmp/320938.137.gen6.q
 Wavefunction directory         : /home/vulcan/mel64643/wfu/
 Main file repository           : /tmp/320938.137.gen6.q/

 ARCHNAME  : Linux/x86_64
 FC        : /opt/intel/compilers_and_libraries_2016.1.150/linux/bin/intel64/ifort
 FCVERSION : 16.0.1
 BLASLIB   : -mkl
 id        : ccgc

 Nodes     nprocs
 n083         3
 Number of processes for MPI-2 version of Molpro:   nprocs(total)=    4   nprocs(compute)=    3   nprocs(helper)=    1
 ga_uses_ma=false, calling ma_init with nominal heap.
 GA-space will be limited to   8.0 MW (determined by -G option)

 Using customized tuning parameters: mindgm=10; mindgv=16; mindgc=4; mindgr=1; noblas=0; mincuda=1000; minvec=7
 default implementation of scratch files=sf  

 ***,Frequencies for min3
 memory,1000,m
 gthresh,energy=1.0d-10,orbital=1.0d-10,oneint=1.0d-16,twoint=1.0d-16,optgrad=1.0d-6,compress=1.0d-13
 geomtyp=xyz
 
  geometry = {
  12
  arbitrary comment
     C    1.776278548007    0.711327343990   -0.047325832693
     C    0.491946274645   -0.060012827333   -0.196492114088
     C    0.450406735260   -1.536312020726    0.100994003737
     O   -0.560617670898    0.727326988652    0.254451348787
     O   -1.837684675774    0.092308426026   -0.120464257548
     H    2.585597950737    0.211039305095   -0.610862734586
     H    1.660727892612    1.742588623997   -0.426624852500
     H    2.095181055960    0.774243637353    1.017963352540
     H   -0.504838435115   -1.982859701012   -0.219097762174
     H    1.281947263125   -2.047476046180   -0.415924923574
     H    0.561657348198   -1.718809510885    1.195768307246
     H   -1.987754643725    0.550578532776   -0.967113535138
  }
 
 basis=cc-pvdz
 {rhf;maxit,200}
 {uccsd(t);maxit,200}

 Variables initialized (661), CPU time= 0.00 sec
 Commands  initialized (458), CPU time= 0.00 sec, 486 directives.
 Default parameters read. Elapsed time= 0.04 sec

 Checking input...
 Passed
1


                                         ***  PROGRAM SYSTEM MOLPRO  ***
                         Copyright, University College Cardiff Consultants Limited, 2008

                                    Version 2010.1 linked May 16 2016 07:17:05


 **********************************************************************************************************************************
 LABEL *   Frequencies for min3                                                          
 Linux-4.4.3/n083(x86_64) 64 bit mpp version                                             DATE: 07-Mar-20          TIME: 01:45:50  
 **********************************************************************************************************************************

 SHA1:             9e8077add272b0f3cad6f7df79ec5211205f459d
 **********************************************************************************************************************************

 THRESHOLDS:

 ZERO    =  1.00D-12  ONEINT  =  1.00D-16  TWOINT  =  1.00D-16  PREFAC  =  1.00D-14  LOCALI  =  1.00D-09  EORDER  =  1.00D-04
 ENERGY  =  1.00D-10  ETEST   =  0.00D+00  EDENS   =  0.00D+00  THRDEDEF=  1.00D-06  GRADIENT=  1.00D-02  STEP    =  1.00D-03
 ORBITAL =  1.00D-10  CIVEC   =  1.00D-05  COEFF   =  1.00D-04  PRINTCI =  5.00D-02  PUNCHCI =  9.90D+01  OPTGRAD =  1.00D-06
 OPTENERG=  1.00D-06  OPTSTEP =  3.00D-04  THRGRAD =  1.00D-10  COMPRESS=  1.00D-13  VARMIN  =  1.00D-07  VARMAX  =  1.00D-03
 THRDOUB =  0.00D+00  THRDIV  =  1.00D-05  THRRED  =  1.00D-07  THRPSP  =  1.00D+00  THRDC   =  1.00D-10  THRCS   =  1.00D-10
 THRNRM  =  1.00D-08  THREQ   =  0.00D+00  THRDE   =  1.00D+00  THRREF  =  1.00D-05  SPARFAC =  1.00D+00  THRDLP  =  1.00D-07
 THRDIA  =  1.00D-10  THRDLS  =  1.00D-07  THRGPS  =  0.00D+00  THRKEX  =  0.00D+00  THRDIS  =  2.00D-01  THRVAR  =  1.00D-10
 THRLOC  =  1.00D-06  THRGAP  =  1.00D-06  THRLOCT = -1.00D+00  THRGAPT = -1.00D+00  THRORB  =  1.00D-06  THRMLTP =  0.00D+00
 THRCPQCI=  1.00D-10  KEXTA   =  0.00D+00  THRCOARS=  0.00D+00  SYMTOL  =  1.00D-06  GRADTOL =  1.00D-06  THROVL  =  1.00D-08
 THRORTH =  1.00D-08  GRID    =  1.00D-06  GRIDMAX =  1.00D-03  DTMAX   =  0.00D+00

 SETTING GEOMTYP        =    XYZ

 Variable memory set to 1000000000 words,  buffer space   230000 words

 SETTING BASIS          =    CC-PVDZ


 Recomputing integrals since basis changed


 Using spherical harmonics

 Library entry C      S cc-pVDZ              selected for orbital group  1
 Library entry C      P cc-pVDZ              selected for orbital group  1
 Library entry C      D cc-pVDZ              selected for orbital group  1
 Library entry O      S cc-pVDZ              selected for orbital group  2
 Library entry O      P cc-pVDZ              selected for orbital group  2
 Library entry O      D cc-pVDZ              selected for orbital group  2
 Library entry H      S cc-pVDZ              selected for orbital group  3
 Library entry H      P cc-pVDZ              selected for orbital group  3

1PROGRAM * SEWARD (Integral evaluation for generally contracted gaussian basis sets)     Author: Roland Lindh, 1990

 Geometry written to block  1 of record 700


 Point group  C1  



 ATOMIC COORDINATES

 NR  ATOM    CHARGE       X              Y              Z

   1  C       6.00    3.356679989    1.344213870   -0.089432863
   2  C       6.00    0.929643730   -0.113407808   -0.371316283
   3  C       6.00    0.851145377   -2.903208972    0.190851008
   4  O       8.00   -1.059413862    1.374448817    0.480843363
   5  O       8.00   -3.472720753    0.174437645   -0.227644455
   6  H       1.00    4.886072013    0.398806490   -1.154363272
   7  H       1.00    3.138320896    3.293015259   -0.806204132
   8  H       1.00    3.959318392    1.463108434    1.923671948
   9  H       1.00   -0.954006383   -3.747061792   -0.414034767
  10  H       1.00    2.422529242   -3.869168988   -0.785984197
  11  H       1.00    1.061378568   -3.248079248    2.259674617
  12  H       1.00   -3.756311893    1.040442641   -1.827579719

 Bond lengths in Bohr (Angstrom)

 1-2  2.845105309  1-6  2.089715735  1-7  2.087886156  1-8  2.104732748  2-3  2.846960587
     ( 1.505564887)     ( 1.105829940)     ( 1.104861769)     ( 1.113776601)     ( 1.506546658)

  2- 4  2.626069973   3- 9  2.082437817   3-10  2.087230946   3-11  2.107881550   4- 5  2.786760117
       ( 1.389656379)       ( 1.101978632)       ( 1.104515046)       ( 1.115442875)       ( 1.474689941)

  5-12  1.841244535
       ( 0.974344644)

 Bond angles

  1-2-3  120.39756527   1-2-4  108.88737007   2-1-6  110.00194690   2-1-7  110.79151405

  2- 1- 8  111.58961704   2- 3- 9  111.32342473   2- 3-10  109.89708063   2- 3-11  110.57164897

  2- 4- 5  109.23562159   3- 2- 4  118.04958547   4- 5-12   98.72910047   6- 1- 7  108.89689043

  6- 1- 8  107.66340402   7- 1- 8  107.79267365   9- 3-10  109.21614007   9- 3-11  107.77293524

 10- 3-11  107.97055728

 NUCLEAR CHARGE:                   41
 NUMBER OF PRIMITIVE AOS:         184
 NUMBER OF SYMMETRY AOS:          179
 NUMBER OF CONTRACTIONS:          105   ( 105A   )
 NUMBER OF CORE ORBITALS:           5   (   5A   )
 NUMBER OF VALENCE ORBITALS:       27   (  27A   )


 NUCLEAR REPULSION ENERGY  183.23356826


 Eigenvalues of metric

         1 0.345E-02 0.435E-02 0.105E-01 0.141E-01 0.182E-01 0.214E-01 0.331E-01 0.346E-01


 Contracted 2-electron integrals neglected if value below      1.0D-16
 AO integral compression algorithm  1   Integral accuracy      1.0D-16

     127.402 MB (compressed) written to integral file ( 93.4%)

     Node minimum: 40.632 MB, node maximum: 43.778 MB


 NUMBER OF SORTED TWO-ELECTRON INTEGRALS:    5164320.     BUFFER LENGTH:  32768
 NUMBER OF SEGMENTS:   1  SEGMENT LENGTH:    5164320      RECORD LENGTH: 524288

 Memory used in sort:       5.72 MW

 SORT1 READ    17075251. AND WROTE     5135912. INTEGRALS IN     15 RECORDS. CPU TIME:     0.19 SEC, REAL TIME:     0.22 SEC
 SORT2 READ    15396641. AND WROTE    15487395. INTEGRALS IN    501 RECORDS. CPU TIME:     0.06 SEC, REAL TIME:     0.09 SEC

 Node minimum:     5160610.  Node maximum:     5164320. integrals

 OPERATOR DM      FOR CENTER  0  COORDINATES:    0.000000    0.000000    0.000000


 **********************************************************************************************************************************
 DATASETS  * FILE   NREC   LENGTH (MB)   RECORD NAMES
              1      18        3.17       500      610      700      900      950      970     1000      129      960     1100   
                                          VAR    BASINP    GEOM    SYMINP    ZMAT    AOBASIS   BASIS     P2S    ABASIS      S 
                                         1400     1410     1200     1210     1080     1600     1650     1700   
                                           T        V       H0       H01     AOSYM     SMH    MOLCAS    OPER   

 PROGRAMS   *        TOTAL       INT
 CPU TIMES  *         0.78      0.74
 REAL TIME  *         1.19 SEC
 DISK USED  *       305.71 MB      
 GA USED    *         0.00 MB       (max)       0.00 MB       (current)
 **********************************************************************************************************************************

1PROGRAM * RHF-SCF (OPEN SHELL)       Authors: W. Meyer, H.-J. Werner


 NUMBER OF ELECTRONS:      21+   20-    SPACE SYMMETRY=1    SPIN SYMMETRY: Doublet 
 CONVERGENCE THRESHOLDS:    1.00E-10 (Density)    1.00E-11 (Energy)
 MAX. NUMBER OF ITERATIONS:      200
 INTERPOLATION TYPE:            DIIS
 INTERPOLATION STEPS:              2 (START)      1 (STEP)
 LEVEL SHIFTS:                 -0.30 (CLOSED)  0.00 (OPEN) 



 Orbital guess generated from atomic densities. Full valence occupancy:   32

 Molecular orbital dump at record        2100.2

 ITERATION    DDIFF          GRAD             ENERGY        2-EL.EN.            DIPOLE MOMENTS         DIIS
    1      0.000D+00      0.000D+00      -267.17824128    555.841865    0.57127    0.04894   -0.74798    0
    2      0.000D+00      0.617D-02      -267.24890669    555.760779    0.41456   -0.13146   -0.59882    1
    3      0.927D-02      0.214D-02      -267.26108188    555.678786    0.39404   -0.05953   -0.62628    2
    4      0.336D-02      0.912D-03      -267.26468889    555.831052    0.37934   -0.09970   -0.64287    3
    5      0.186D-02      0.363D-03      -267.26525789    555.802399    0.38184   -0.09323   -0.63593    4
    6      0.793D-03      0.110D-03      -267.26533425    555.788652    0.38010   -0.09303   -0.63869    5
    7      0.277D-03      0.511D-04      -267.26535435    555.785664    0.37939   -0.09277   -0.63819    6
    8      0.144D-03      0.272D-04      -267.26536040    555.783713    0.37966   -0.09288   -0.63840    7
    9      0.923D-04      0.115D-04      -267.26536132    555.784038    0.37985   -0.09284   -0.63816    8
   10      0.366D-04      0.501D-05      -267.26536148    555.784644    0.38011   -0.09285   -0.63822    9
   11      0.146D-04      0.196D-05      -267.26536150    555.784486    0.38016   -0.09285   -0.63823    9
   12      0.650D-05      0.670D-06      -267.26536151    555.784620    0.38018   -0.09285   -0.63822    9
   13      0.227D-05      0.226D-06      -267.26536151    555.784536    0.38018   -0.09285   -0.63822    9
   14      0.632D-06      0.757D-07      -267.26536151    555.784544    0.38018   -0.09285   -0.63822    9
   15      0.193D-06      0.300D-07      -267.26536151    555.784540    0.38018   -0.09285   -0.63822    9
   16      0.825D-07      0.145D-07      -267.26536151    555.784542    0.38018   -0.09285   -0.63822    9
   17      0.373D-07      0.750D-08      -267.26536151    555.784542    0.38018   -0.09285   -0.63822    9
   18      0.222D-07      0.341D-08      -267.26536151    555.784542    0.38018   -0.09285   -0.63822    9
   19      0.114D-07      0.133D-08      -267.26536151    555.784542    0.38018   -0.09285   -0.63822    9
   20      0.444D-08      0.565D-09      -267.26536151    555.784542    0.38018   -0.09285   -0.63822    9
   21      0.165D-08      0.286D-09      -267.26536151    555.784542    0.38018   -0.09285   -0.63822    9
   22      0.752D-09      0.161D-09      -267.26536151    555.784542    0.38018   -0.09285   -0.63822    9
   23      0.445D-09      0.794D-10      -267.26536151    555.784542    0.38018   -0.09285   -0.63822    9
   24      0.263D-09      0.316D-10      -267.26536151    555.784542    0.38018   -0.09285   -0.63822    9
   25      0.930D-10      0.129D-10      -267.26536151    555.784542    0.38018   -0.09285   -0.63822    0

 Final alpha occupancy:  21
 Final beta  occupancy:  20

 !RHF STATE 1.1 Energy               -267.265361506610
 Nuclear energy                       183.23356826
 One-electron energy                 -728.39120077
 Two-electron energy                  277.89227100
 Virial quotient                       -1.00155584
 !RHF STATE 1.1 Dipole moment           0.38018190    -0.09285304    -0.63822277
 Dipole moment /Debye                   0.96626271    -0.23599343    -1.62209424

 Orbital energies:

         1.1          2.1          3.1          4.1          5.1          6.1          7.1          8.1          9.1         10.1
    -20.630490   -20.628810   -11.279257   -11.237909   -11.232251    -1.470173    -1.240747    -1.023300    -0.945360    -0.768477

        11.1         12.1         13.1         14.1         15.1         16.1         17.1         18.1         19.1         20.1
     -0.704610    -0.643157    -0.626718    -0.588798    -0.544883    -0.543554    -0.538677    -0.517102    -0.493020    -0.469928

        21.1         22.1         23.1
     -0.352218     0.181299     0.183519


 **********************************************************************************************************************************
 DATASETS  * FILE   NREC   LENGTH (MB)   RECORD NAMES
              1      18        3.17       500      610      700      900      950      970     1000      129      960     1100   
                                          VAR    BASINP    GEOM    SYMINP    ZMAT    AOBASIS   BASIS     P2S    ABASIS      S 
                                         1400     1410     1200     1210     1080     1600     1650     1700   
                                           T        V       H0       H01     AOSYM     SMH    MOLCAS    OPER   

              2       3        0.77       700     1000     2100   
                                         GEOM     BASIS     RHF  

 PROGRAMS   *        TOTAL       RHF       INT
 CPU TIMES  *         1.70      0.92      0.74
 REAL TIME  *         2.26 SEC
 DISK USED  *       322.27 MB      
 SF USED    *         0.04 MB      
 GA USED    *         0.00 MB       (max)       0.00 MB       (current)
 **********************************************************************************************************************************


1PROGRAM * CCSD (Unrestricted open-shell coupled cluster)     Authors: C. Hampel, H.-J. Werner, 1991, M. Deegan, P.J. Knowles, 1992


 Convergence thresholds:  THRVAR = 1.00D-08  THRDEN = 1.00D-10

 CCSD(T)     terms to be evaluated (factor= 1.000)


 Number of core orbitals:           5 (   5 )
 Number of closed-shell orbitals:  15 (  15 )
 Number of active  orbitals:        1 (   1 )
 Number of external orbitals:      84 (  84 )

 Memory could be reduced to 24.91 Mwords without degradation in triples

 Number of N-1 electron functions:              31
 Number of N-2 electron functions:             465
 Number of singly external CSFs:              2635
 Number of doubly external CSFs:           2537250
 Total number of CSFs:                     2539885

 Molecular orbitals read from record     2100.2  Type=RHF/CANONICAL (state 1.1)

 Integral transformation finished. Total CPU:   0.71 sec, npass=  1  Memory used:  12.63 MW

 Starting RMP2 calculation

 ITER.      SQ.NORM     CORR.ENERGY   TOTAL ENERGY   ENERGY CHANGE        DEN1      VAR(S)    VAR(P)  DIIS     TIME
   1      1.24304717    -0.78640450  -268.05176601    -0.78640450    -0.00305009  0.20D-04  0.11D-02  1  1     0.96
   2      1.24568916    -0.78969383  -268.05505534    -0.00328933    -0.00000475  0.54D-06  0.19D-05  2  2     1.20
   3      1.24575478    -0.78973594  -268.05509744    -0.00004210    -0.00000003  0.16D-07  0.68D-08  3  3     1.46
   4      1.24575574    -0.78973594  -268.05509745    -0.00000000    -0.00000000  0.27D-09  0.38D-10  4  4     1.74
   5      1.24575582    -0.78973597  -268.05509748    -0.00000003    -0.00000000  0.25D-11  0.66D-12  5  5     2.05
   6      1.24575583    -0.78973598  -268.05509749    -0.00000001    -0.00000000  0.28D-13  0.87D-14  6  6     2.38
   7      1.24575583    -0.78973598  -268.05509748     0.00000000    -0.00000000  0.47D-15  0.12D-15  6  1     2.71
   8      1.24575583    -0.78973598  -268.05509748     0.00000000    -0.00000000  0.60D-17  0.13D-17  6  2     3.04

 Norm of t1 vector:      0.03894964      S-energy:    -0.00227298      T1 diagnostic:  0.00055083
 Norm of t2 vector:      0.49420518      P-energy:    -0.78746300
                                         Alpha-Beta:  -0.59343413
                                         Alpha-Alpha: -0.10094547
                                         Beta-Beta:   -0.09308340

 Spin contamination <S**2-Sz**2-Sz>     0.00104098
  Reference energy                   -267.265361506610
  RHF-RMP2 correlation energy          -0.789735978283
 !RHF-RMP2 energy                    -268.055097484893

 Starting UCCSD calculation

 ITER.      SQ.NORM     CORR.ENERGY   TOTAL ENERGY   ENERGY CHANGE        DEN1      VAR(S)    VAR(P)  DIIS     TIME
   1      1.26282008    -0.80906981  -268.07443131    -0.80906981    -0.02515908  0.38D-02  0.59D-02  1  1     7.75
   2      1.29160067    -0.83648171  -268.10184322    -0.02741191    -0.00201189  0.22D-03  0.66D-03  2  2    12.47
   3      1.30154634    -0.84098137  -268.10634288    -0.00449966    -0.00032472  0.19D-03  0.56D-04  3  3    17.24
   4      1.30646158    -0.84245913  -268.10782064    -0.00147776    -0.00007207  0.43D-04  0.14D-04  4  4    22.05
   5      1.30919115    -0.84284729  -268.10820880    -0.00038816    -0.00002365  0.19D-04  0.32D-05  5  5    26.82
   6      1.31112879    -0.84305166  -268.10841317    -0.00020437    -0.00000645  0.42D-05  0.12D-05  6  6    33.29
   7      1.31207674    -0.84311038  -268.10847188    -0.00005871    -0.00000208  0.14D-05  0.37D-06  6  2    39.64
   8      1.31251755    -0.84315300  -268.10851451    -0.00004263    -0.00000065  0.45D-06  0.11D-06  6  1    46.10
   9      1.31270246    -0.84315758  -268.10851909    -0.00000458    -0.00000022  0.15D-06  0.35D-07  6  4    52.24
  10      1.31276560    -0.84316051  -268.10852202    -0.00000293    -0.00000005  0.35D-07  0.95D-08  6  3    58.37
  11      1.31279505    -0.84315925  -268.10852076     0.00000126    -0.00000002  0.13D-07  0.28D-08  6  5    64.73
  12      1.31280540    -0.84315899  -268.10852049     0.00000026    -0.00000000  0.26D-08  0.95D-09  6  6    71.12
  13      1.31280425    -0.84315807  -268.10851958     0.00000092    -0.00000000  0.96D-09  0.28D-09  6  2    77.47
  14      1.31279905    -0.84315723  -268.10851873     0.00000084    -0.00000000  0.21D-09  0.67D-10  6  1    83.82
  15      1.31279498    -0.84315664  -268.10851815     0.00000059    -0.00000000  0.78D-10  0.19D-10  6  4    90.33
  16      1.31279180    -0.84315626  -268.10851776     0.00000038    -0.00000000  0.28D-10  0.63D-11  6  3    96.98
  17      1.31278960    -0.84315602  -268.10851753     0.00000024    -0.00000000  0.10D-10  0.24D-11  6  5   103.64
  18      1.31278870    -0.84315596  -268.10851747     0.00000006    -0.00000000  0.41D-11  0.87D-12  6  6   110.31
  19      1.31278809    -0.84315592  -268.10851743     0.00000003    -0.00000000  0.16D-11  0.37D-12  6  2   116.92
  20      1.31278777    -0.84315591  -268.10851742     0.00000001    -0.00000000  0.60D-12  0.13D-12  6  1   123.53
  21      1.31278761    -0.84315590  -268.10851741     0.00000001    -0.00000000  0.28D-12  0.58D-13  6  4   129.77
  22      1.31278749    -0.84315589  -268.10851740     0.00000001    -0.00000000  0.74D-13  0.21D-13  6  3   135.55
  23      1.31278743    -0.84315589  -268.10851740     0.00000000    -0.00000000  0.21D-13  0.63D-14  6  5   141.32
  24      1.31278742    -0.84315589  -268.10851740    -0.00000000    -0.00000000  0.67D-14  0.22D-14  6  6   147.09
  25      1.31278743    -0.84315589  -268.10851740    -0.00000000    -0.00000000  0.21D-14  0.52D-15  6  2   152.86
  26      1.31278743    -0.84315589  -268.10851740    -0.00000000    -0.00000000  0.77D-15  0.15D-15  6  1   158.62
  27      1.31278744    -0.84315589  -268.10851740    -0.00000000    -0.00000000  0.20D-15  0.62D-16  6  3   164.38
  28      1.31278745    -0.84315590  -268.10851740    -0.00000000    -0.00000000  0.30D-16  0.11D-16  6  4   170.15
  29      1.31278745    -0.84315590  -268.10851740    -0.00000000    -0.00000000  0.70D-17  0.29D-17  6  5   175.71
  30      1.31278745    -0.84315590  -268.10851740    -0.00000000    -0.00000000  0.15D-17  0.54D-18  6  6   181.48
  31      1.31278745    -0.84315590  -268.10851740    -0.00000000    -0.00000000  0.35D-18  0.10D-18  6  2   187.24

 Norm of t1 vector:      0.13872239      S-energy:    -0.00282280      T1 diagnostic:  0.01616918
                                                                       D1 diagnostic:  0.06281764
 Norm of t2 vector:      0.54179659      P-energy:    -0.84033310
                                         Alpha-Beta:  -0.66488362
                                         Alpha-Alpha: -0.09147614
                                         Beta-Beta:   -0.08397334

 Spin contamination <S**2-Sz**2-Sz>     0.00217049

 Memory could be reduced to 28.85 Mwords without degradation in triples
 

 RESULTS
 =======

  Reference energy                   -267.265361506610
  UCCSD singles energy                 -0.002822797082
  UCCSD pair energy                    -0.840333098436
  UCCSD correlation energy             -0.843155895518
  Triples (T) contribution             -0.024978151175
  Total correlation energy             -0.868134046694
 
  RHF-UCCSD energy                   -268.108517402129
  RHF-UCCSD[T] energy                -268.134831525533
  RHF-UCCSD-T energy                 -268.133073969529
 !RHF-UCCSD(T) energy                -268.133495553304

 Program statistics:

 Available memory in ccsd:               999997692
 Min. memory needed in ccsd:               7337057
 Max. memory used in ccsd:                10523002
 Max. memory used in cckext:              10867977 (31 integral passes)
 Max. memory used in cckint:              12633073 ( 1 integral passes)



 **********************************************************************************************************************************
 DATASETS  * FILE   NREC   LENGTH (MB)   RECORD NAMES
              1      18        3.17       500      610      700      900      950      970     1000      129      960     1100   
                                          VAR    BASINP    GEOM    SYMINP    ZMAT    AOBASIS   BASIS     P2S    ABASIS      S 
                                         1400     1410     1200     1210     1080     1600     1650     1700   
                                           T        V       H0       H01     AOSYM     SMH    MOLCAS    OPER   

              2       3        0.77       700     1000     2100   
                                         GEOM     BASIS     RHF  

 PROGRAMS   *        TOTAL  UCCSD(T)       RHF       INT
 CPU TIMES  *       228.43    226.72      0.92      0.74
 REAL TIME  *       238.60 SEC
 DISK USED  *         1.29 GB      
 SF USED    *       553.73 MB      
 GA USED    *         0.00 MB       (max)       0.00 MB       (current)
 **********************************************************************************************************************************

        UCCSD(T)        RHF-SCF 
   -268.13349555   -267.26536151
 **********************************************************************************************************************************
 Variable memory released
