
 Primary working directories    : /tmp/320938.787.gen4.q
 Secondary working directories  : /tmp/320938.787.gen4.q
 Wavefunction directory         : /home/vulcan/mel64643/wfu/
 Main file repository           : /tmp/320938.787.gen4.q/

 ARCHNAME  : Linux/x86_64
 FC        : /opt/intel/compilers_and_libraries_2016.1.150/linux/bin/intel64/ifort
 FCVERSION : 16.0.1
 BLASLIB   : -mkl
 id        : ccgc

 Nodes     nprocs
 n036         3
 Number of processes for MPI-2 version of Molpro:   nprocs(total)=    4   nprocs(compute)=    3   nprocs(helper)=    1
 ga_uses_ma=false, calling ma_init with nominal heap.
 GA-space will be limited to   8.0 MW (determined by -G option)

 Using customized tuning parameters: mindgm=10; mindgv=16; mindgc=4; mindgr=1; noblas=0; mincuda=1000; minvec=7
 default implementation of scratch files=sf  

 ***,Frequencies for min3
 memory,1000,m
 gthresh,energy=1.0d-10,orbital=1.0d-10,oneint=1.0d-16,twoint=1.0d-16,optgrad=1.0d-6,compress=1.0d-13
 geomtyp=xyz
 
  geometry = {
  12
  arbitrary comment
     C    1.776964391707    0.711398808326   -0.047331391796
     C    0.491811976407   -0.059992870174   -0.196493901896
     C    0.450332819107   -1.536294019674    0.101417522804
     O   -0.560767745493    0.726744417969    0.254406953019
     O   -1.837847230631    0.092566082076   -0.120516324204
     H    2.585361774863    0.211937137012   -0.611422704874
     H    1.660336258176    1.743331452254   -0.426678706839
     H    2.095077844459    0.772690170057    1.017490236568
     H   -0.504491922130   -1.982079833693   -0.219747505936
     H    1.282312999464   -2.045745631933   -0.416711137451
     H    0.561968798043   -1.717663904261    1.195076854405
     H   -1.988772715177    0.550689207184   -0.967323545965
  }
 
 basis=cc-pvdz
 {rhf;maxit,200}
 {uccsd(t);maxit,200}

 Variables initialized (661), CPU time= 0.00 sec
 Commands  initialized (458), CPU time= 0.01 sec, 486 directives.
 Default parameters read. Elapsed time= 0.07 sec

 Checking input...
 Passed
1


                                         ***  PROGRAM SYSTEM MOLPRO  ***
                         Copyright, University College Cardiff Consultants Limited, 2008

                                    Version 2010.1 linked May 16 2016 07:17:05


 **********************************************************************************************************************************
 LABEL *   Frequencies for min3                                                          
 Linux-4.4.3/n036(x86_64) 64 bit mpp version                                             DATE: 07-Mar-20          TIME: 05:36:20  
 **********************************************************************************************************************************

 SHA1:             9e8077add272b0f3cad6f7df79ec5211205f459d
 **********************************************************************************************************************************

 THRESHOLDS:

 ZERO    =  1.00D-12  ONEINT  =  1.00D-16  TWOINT  =  1.00D-16  PREFAC  =  1.00D-14  LOCALI  =  1.00D-09  EORDER  =  1.00D-04
 ENERGY  =  1.00D-10  ETEST   =  0.00D+00  EDENS   =  0.00D+00  THRDEDEF=  1.00D-06  GRADIENT=  1.00D-02  STEP    =  1.00D-03
 ORBITAL =  1.00D-10  CIVEC   =  1.00D-05  COEFF   =  1.00D-04  PRINTCI =  5.00D-02  PUNCHCI =  9.90D+01  OPTGRAD =  1.00D-06
 OPTENERG=  1.00D-06  OPTSTEP =  3.00D-04  THRGRAD =  1.00D-10  COMPRESS=  1.00D-13  VARMIN  =  1.00D-07  VARMAX  =  1.00D-03
 THRDOUB =  0.00D+00  THRDIV  =  1.00D-05  THRRED  =  1.00D-07  THRPSP  =  1.00D+00  THRDC   =  1.00D-10  THRCS   =  1.00D-10
 THRNRM  =  1.00D-08  THREQ   =  0.00D+00  THRDE   =  1.00D+00  THRREF  =  1.00D-05  SPARFAC =  1.00D+00  THRDLP  =  1.00D-07
 THRDIA  =  1.00D-10  THRDLS  =  1.00D-07  THRGPS  =  0.00D+00  THRKEX  =  0.00D+00  THRDIS  =  2.00D-01  THRVAR  =  1.00D-10
 THRLOC  =  1.00D-06  THRGAP  =  1.00D-06  THRLOCT = -1.00D+00  THRGAPT = -1.00D+00  THRORB  =  1.00D-06  THRMLTP =  0.00D+00
 THRCPQCI=  1.00D-10  KEXTA   =  0.00D+00  THRCOARS=  0.00D+00  SYMTOL  =  1.00D-06  GRADTOL =  1.00D-06  THROVL  =  1.00D-08
 THRORTH =  1.00D-08  GRID    =  1.00D-06  GRIDMAX =  1.00D-03  DTMAX   =  0.00D+00

 SETTING GEOMTYP        =    XYZ

 Variable memory set to 1000000000 words,  buffer space   230000 words

 SETTING BASIS          =    CC-PVDZ


 Recomputing integrals since basis changed


 Using spherical harmonics

 Library entry C      S cc-pVDZ              selected for orbital group  1
 Library entry C      P cc-pVDZ              selected for orbital group  1
 Library entry C      D cc-pVDZ              selected for orbital group  1
 Library entry O      S cc-pVDZ              selected for orbital group  2
 Library entry O      P cc-pVDZ              selected for orbital group  2
 Library entry O      D cc-pVDZ              selected for orbital group  2
 Library entry H      S cc-pVDZ              selected for orbital group  3
 Library entry H      P cc-pVDZ              selected for orbital group  3

1PROGRAM * SEWARD (Integral evaluation for generally contracted gaussian basis sets)     Author: Roland Lindh, 1990

 Geometry written to block  1 of record 700


 Point group  C1  



 ATOMIC COORDINATES

 NR  ATOM    CHARGE       X              Y              Z

   1  C       6.00    3.357976046    1.344348918   -0.089443368
   2  C       6.00    0.929389944   -0.113370094   -0.371319661
   3  C       6.00    0.851005696   -2.903174955    0.191651343
   4  O       8.00   -1.059697462    1.373347918    0.480759467
   5  O       8.00   -3.473027937    0.174924544   -0.227742847
   6  H       1.00    4.885625705    0.400503146   -1.155421463
   7  H       1.00    3.137580814    3.294419001   -0.806305902
   8  H       1.00    3.959123350    1.460172806    1.922777889
   9  H       1.00   -0.953351568   -3.745588056   -0.415262604
  10  H       1.00    2.423220384   -3.865898979   -0.787469926
  11  H       1.00    1.061967123   -3.245914365    2.258367961
  12  H       1.00   -3.758235769    1.040651785   -1.827976582

 Bond lengths in Bohr (Angstrom)

 1-2  2.846476668  1-6  2.088269049  1-7  2.089315505  1-8  2.103289718  2-3  2.847119878
     ( 1.506290578)     ( 1.105064387)     ( 1.105618148)     ( 1.113012983)     ( 1.506630951)

  2- 4  2.625421489   3- 9  2.081756353   3-10  2.087432641   3-11  2.105538555   4- 5  2.786100876
       ( 1.389313216)       ( 1.101618016)       ( 1.104621779)       ( 1.114203016)       ( 1.474341086)

  5-12  1.841622972
       ( 0.974544904)

 Bond angles

  1-2-3  120.37866573   1-2-4  108.92084440   2-1-6  110.00670441   2-1-7  110.73252341

  2- 1- 8  111.51794041   2- 3- 9  111.26817887   2- 3-10  109.78136337   2- 3-11  110.53822981

  2- 4- 5  109.27757305   3- 2- 4  118.02427572   4- 5-12   98.79548039   6- 1- 7  108.89755031

  6- 1- 8  107.70789551   7- 1- 8  107.87879683   9- 3-10  109.23469391   9- 3-11  107.88667074

 10- 3-11  108.05132470

 NUCLEAR CHARGE:                   41
 NUMBER OF PRIMITIVE AOS:         184
 NUMBER OF SYMMETRY AOS:          179
 NUMBER OF CONTRACTIONS:          105   ( 105A   )
 NUMBER OF CORE ORBITALS:           5   (   5A   )
 NUMBER OF VALENCE ORBITALS:       27   (  27A   )


 NUCLEAR REPULSION ENERGY  183.24098480


 Eigenvalues of metric

         1 0.345E-02 0.435E-02 0.105E-01 0.141E-01 0.182E-01 0.214E-01 0.331E-01 0.346E-01


 Contracted 2-electron integrals neglected if value below      1.0D-16
 AO integral compression algorithm  1   Integral accuracy      1.0D-16

     127.402 MB (compressed) written to integral file ( 93.4%)

     Node minimum: 41.419 MB, node maximum: 44.040 MB


 NUMBER OF SORTED TWO-ELECTRON INTEGRALS:    5164320.     BUFFER LENGTH:  32768
 NUMBER OF SEGMENTS:   1  SEGMENT LENGTH:    5164320      RECORD LENGTH: 524288

 Memory used in sort:       5.72 MW

 SORT1 READ    17075413. AND WROTE     5135912. INTEGRALS IN     15 RECORDS. CPU TIME:     0.23 SEC, REAL TIME:     0.28 SEC
 SORT2 READ    15396665. AND WROTE    15487395. INTEGRALS IN    474 RECORDS. CPU TIME:     0.08 SEC, REAL TIME:     0.11 SEC

 Node minimum:     5160610.  Node maximum:     5164320. integrals

 OPERATOR DM      FOR CENTER  0  COORDINATES:    0.000000    0.000000    0.000000


 **********************************************************************************************************************************
 DATASETS  * FILE   NREC   LENGTH (MB)   RECORD NAMES
              1      18        3.17       500      610      700      900      950      970     1000      129      960     1100   
                                          VAR    BASINP    GEOM    SYMINP    ZMAT    AOBASIS   BASIS     P2S    ABASIS      S 
                                         1400     1410     1200     1210     1080     1600     1650     1700   
                                           T        V       H0       H01     AOSYM     SMH    MOLCAS    OPER   

 PROGRAMS   *        TOTAL       INT
 CPU TIMES  *         1.34      1.24
 REAL TIME  *         1.62 SEC
 DISK USED  *       305.44 MB      
 GA USED    *         0.00 MB       (max)       0.00 MB       (current)
 **********************************************************************************************************************************

1PROGRAM * RHF-SCF (OPEN SHELL)       Authors: W. Meyer, H.-J. Werner


 NUMBER OF ELECTRONS:      21+   20-    SPACE SYMMETRY=1    SPIN SYMMETRY: Doublet 
 CONVERGENCE THRESHOLDS:    1.00E-10 (Density)    1.00E-11 (Energy)
 MAX. NUMBER OF ITERATIONS:      200
 INTERPOLATION TYPE:            DIIS
 INTERPOLATION STEPS:              2 (START)      1 (STEP)
 LEVEL SHIFTS:                 -0.30 (CLOSED)  0.00 (OPEN) 



 Orbital guess generated from atomic densities. Full valence occupancy:   32

 Molecular orbital dump at record        2100.2

 ITERATION    DDIFF          GRAD             ENERGY        2-EL.EN.            DIPOLE MOMENTS         DIIS
    1      0.000D+00      0.000D+00      -267.17832499    555.855841    0.56984    0.05053   -0.74934    0
    2      0.000D+00      0.617D-02      -267.24899689    555.776117    0.41378   -0.13050   -0.59902    1
    3      0.927D-02      0.214D-02      -267.26116804    555.694230    0.39343   -0.05889   -0.62638    2
    4      0.336D-02      0.912D-03      -267.26477272    555.846498    0.37885   -0.09914   -0.64276    3
    5      0.186D-02      0.363D-03      -267.26534114    555.817844    0.38138   -0.09274   -0.63576    4
    6      0.792D-03      0.110D-03      -267.26541749    555.804106    0.37965   -0.09256   -0.63850    5
    7      0.277D-03      0.510D-04      -267.26543758    555.801113    0.37894   -0.09232   -0.63799    6
    8      0.144D-03      0.272D-04      -267.26544361    555.799165    0.37921   -0.09244   -0.63821    7
    9      0.922D-04      0.115D-04      -267.26544453    555.799481    0.37940   -0.09240   -0.63797    8
   10      0.365D-04      0.500D-05      -267.26544468    555.800091    0.37966   -0.09241   -0.63803    9
   11      0.146D-04      0.196D-05      -267.26544471    555.799932    0.37971   -0.09240   -0.63804    9
   12      0.650D-05      0.669D-06      -267.26544471    555.800067    0.37973   -0.09240   -0.63803    9
   13      0.227D-05      0.226D-06      -267.26544471    555.799983    0.37973   -0.09240   -0.63803    9
   14      0.630D-06      0.755D-07      -267.26544471    555.799991    0.37973   -0.09241   -0.63803    9
   15      0.192D-06      0.299D-07      -267.26544471    555.799987    0.37973   -0.09241   -0.63803    9
   16      0.821D-07      0.144D-07      -267.26544471    555.799989    0.37973   -0.09241   -0.63803    9
   17      0.371D-07      0.745D-08      -267.26544471    555.799989    0.37973   -0.09241   -0.63803    9
   18      0.220D-07      0.340D-08      -267.26544471    555.799989    0.37973   -0.09241   -0.63803    9
   19      0.113D-07      0.132D-08      -267.26544471    555.799989    0.37973   -0.09241   -0.63803    9
   20      0.442D-08      0.563D-09      -267.26544471    555.799989    0.37973   -0.09241   -0.63803    9
   21      0.164D-08      0.284D-09      -267.26544471    555.799989    0.37973   -0.09241   -0.63803    9
   22      0.747D-09      0.160D-09      -267.26544471    555.799989    0.37973   -0.09241   -0.63803    9
   23      0.442D-09      0.789D-10      -267.26544471    555.799989    0.37973   -0.09241   -0.63803    9
   24      0.261D-09      0.314D-10      -267.26544471    555.799989    0.37973   -0.09241   -0.63803    9
   25      0.924D-10      0.128D-10      -267.26544471    555.799989    0.37973   -0.09241   -0.63803    0

 Final alpha occupancy:  21
 Final beta  occupancy:  20

 !RHF STATE 1.1 Energy               -267.265444712212
 Nuclear energy                       183.24098480
 One-electron energy                 -728.40642400
 Two-electron energy                  277.89999450
 Virial quotient                       -1.00154644
 !RHF STATE 1.1 Dipole moment           0.37973290    -0.09240583    -0.63802965
 Dipole moment /Debye                   0.96512155    -0.23485681    -1.62160339

 Orbital energies:

         1.1          2.1          3.1          4.1          5.1          6.1          7.1          8.1          9.1         10.1
    -20.630413   -20.628801   -11.279158   -11.237876   -11.232050    -1.470273    -1.240726    -1.023257    -0.945392    -0.768531

        11.1         12.1         13.1         14.1         15.1         16.1         17.1         18.1         19.1         20.1
     -0.704573    -0.643039    -0.626780    -0.588855    -0.545178    -0.543494    -0.539051    -0.517022    -0.492996    -0.469675

        21.1         22.1         23.1
     -0.352157     0.181279     0.183551


 **********************************************************************************************************************************
 DATASETS  * FILE   NREC   LENGTH (MB)   RECORD NAMES
              1      18        3.17       500      610      700      900      950      970     1000      129      960     1100   
                                          VAR    BASINP    GEOM    SYMINP    ZMAT    AOBASIS   BASIS     P2S    ABASIS      S 
                                         1400     1410     1200     1210     1080     1600     1650     1700   
                                           T        V       H0       H01     AOSYM     SMH    MOLCAS    OPER   

              2       3        0.77       700     1000     2100   
                                         GEOM     BASIS     RHF  

 PROGRAMS   *        TOTAL       RHF       INT
 CPU TIMES  *         2.81      1.47      1.24
 REAL TIME  *         3.23 SEC
 DISK USED  *       322.01 MB      
 SF USED    *         0.04 MB      
 GA USED    *         0.00 MB       (max)       0.00 MB       (current)
 **********************************************************************************************************************************


1PROGRAM * CCSD (Unrestricted open-shell coupled cluster)     Authors: C. Hampel, H.-J. Werner, 1991, M. Deegan, P.J. Knowles, 1992


 Convergence thresholds:  THRVAR = 1.00D-08  THRDEN = 1.00D-10

 CCSD(T)     terms to be evaluated (factor= 1.000)


 Number of core orbitals:           5 (   5 )
 Number of closed-shell orbitals:  15 (  15 )
 Number of active  orbitals:        1 (   1 )
 Number of external orbitals:      84 (  84 )

 Memory could be reduced to 24.91 Mwords without degradation in triples

 Number of N-1 electron functions:              31
 Number of N-2 electron functions:             465
 Number of singly external CSFs:              2635
 Number of doubly external CSFs:           2537250
 Total number of CSFs:                     2539885

 Molecular orbitals read from record     2100.2  Type=RHF/CANONICAL (state 1.1)

 Integral transformation finished. Total CPU:   1.60 sec, npass=  1  Memory used:  12.63 MW

 Starting RMP2 calculation

 ITER.      SQ.NORM     CORR.ENERGY   TOTAL ENERGY   ENERGY CHANGE        DEN1      VAR(S)    VAR(P)  DIIS     TIME
   1      1.24298074    -0.78633070  -268.05177541    -0.78633070    -0.00304863  0.20D-04  0.11D-02  1  1     2.08
   2      1.24562057    -0.78961839  -268.05506311    -0.00328769    -0.00000474  0.54D-06  0.19D-05  2  2     2.51
   3      1.24568606    -0.78966042  -268.05510514    -0.00004203    -0.00000003  0.16D-07  0.68D-08  3  3     2.96
   4      1.24568701    -0.78966043  -268.05510514    -0.00000000    -0.00000000  0.27D-09  0.38D-10  4  4     3.44
   5      1.24568710    -0.78966046  -268.05510517    -0.00000003    -0.00000000  0.25D-11  0.65D-12  5  5     3.95
   6      1.24568711    -0.78966047  -268.05510518    -0.00000001    -0.00000000  0.28D-13  0.86D-14  6  6     4.49
   7      1.24568711    -0.78966047  -268.05510518     0.00000000    -0.00000000  0.47D-15  0.12D-15  6  1     5.04
   8      1.24568711    -0.78966047  -268.05510518     0.00000000    -0.00000000  0.60D-17  0.13D-17  6  2     5.59

 Norm of t1 vector:      0.03893371      S-energy:    -0.00227180      T1 diagnostic:  0.00055021
 Norm of t2 vector:      0.49413690      P-energy:    -0.78738866
                                         Alpha-Beta:  -0.59337457
                                         Alpha-Alpha: -0.10093872
                                         Beta-Beta:   -0.09307537

 Spin contamination <S**2-Sz**2-Sz>     0.00104059
  Reference energy                   -267.265444712212
  RHF-RMP2 correlation energy          -0.789660465507
 !RHF-RMP2 energy                    -268.055105177719

 Starting UCCSD calculation

 ITER.      SQ.NORM     CORR.ENERGY   TOTAL ENERGY   ENERGY CHANGE        DEN1      VAR(S)    VAR(P)  DIIS     TIME
   1      1.26275830    -0.80901325  -268.07445796    -0.80901325    -0.02514827  0.38D-02  0.59D-02  1  1    15.30
   2      1.29152085    -0.83641562  -268.10186033    -0.02740237    -0.00200960  0.22D-03  0.66D-03  2  2    24.23
   3      1.30145533    -0.84091093  -268.10635564    -0.00449532    -0.00032446  0.19D-03  0.56D-04  3  3    32.39
   4      1.30636542    -0.84238701  -268.10783172    -0.00147608    -0.00007208  0.43D-04  0.14D-04  4  4    40.61
   5      1.30909579    -0.84277515  -268.10821986    -0.00038814    -0.00002367  0.19D-04  0.32D-05  5  5    48.31
   6      1.31103597    -0.84297967  -268.10842438    -0.00020452    -0.00000646  0.42D-05  0.12D-05  6  6    56.52
   7      1.31198587    -0.84303851  -268.10848322    -0.00005884    -0.00000208  0.14D-05  0.37D-06  6  2    64.72
   8      1.31242737    -0.84308116  -268.10852587    -0.00004266    -0.00000065  0.45D-06  0.11D-06  6  1    72.92
   9      1.31261255    -0.84308574  -268.10853045    -0.00000458    -0.00000022  0.15D-06  0.35D-07  6  4    80.81
  10      1.31267558    -0.84308865  -268.10853337    -0.00000292    -0.00000005  0.35D-07  0.95D-08  6  3    89.00
  11      1.31270502    -0.84308740  -268.10853211     0.00000125    -0.00000002  0.13D-07  0.28D-08  6  5    97.21
  12      1.31271537    -0.84308714  -268.10853185     0.00000026    -0.00000000  0.26D-08  0.95D-09  6  6   105.42
  13      1.31271422    -0.84308622  -268.10853094     0.00000091    -0.00000000  0.96D-09  0.28D-09  6  2   113.62
  14      1.31270901    -0.84308538  -268.10853009     0.00000084    -0.00000000  0.21D-09  0.67D-10  6  1   121.83
  15      1.31270493    -0.84308479  -268.10852951     0.00000059    -0.00000000  0.78D-10  0.19D-10  6  4   130.02
  16      1.31270176    -0.84308441  -268.10852912     0.00000038    -0.00000000  0.28D-10  0.63D-11  6  3   138.23
  17      1.31269956    -0.84308417  -268.10852888     0.00000024    -0.00000000  0.10D-10  0.24D-11  6  5   146.47
  18      1.31269865    -0.84308411  -268.10852882     0.00000006    -0.00000000  0.41D-11  0.87D-12  6  6   156.29
  19      1.31269804    -0.84308408  -268.10852879     0.00000003    -0.00000000  0.16D-11  0.37D-12  6  2   165.57
  20      1.31269772    -0.84308407  -268.10852878     0.00000001    -0.00000000  0.60D-12  0.13D-12  6  1   173.80
  21      1.31269756    -0.84308406  -268.10852877     0.00000001    -0.00000000  0.28D-12  0.58D-13  6  4   182.02
  22      1.31269744    -0.84308405  -268.10852876     0.00000001    -0.00000000  0.73D-13  0.21D-13  6  3   191.11
  23      1.31269738    -0.84308404  -268.10852876     0.00000000    -0.00000000  0.21D-13  0.62D-14  6  5   199.32
  24      1.31269738    -0.84308405  -268.10852876    -0.00000000    -0.00000000  0.67D-14  0.22D-14  6  6   208.53
  25      1.31269738    -0.84308405  -268.10852876    -0.00000000    -0.00000000  0.21D-14  0.52D-15  6  2   216.93
  26      1.31269739    -0.84308405  -268.10852876    -0.00000000    -0.00000000  0.76D-15  0.15D-15  6  1   225.12
  27      1.31269740    -0.84308405  -268.10852876    -0.00000000    -0.00000000  0.20D-15  0.62D-16  6  3   233.34
  28      1.31269740    -0.84308405  -268.10852876    -0.00000000    -0.00000000  0.29D-16  0.11D-16  6  4   241.57
  29      1.31269740    -0.84308405  -268.10852876    -0.00000000    -0.00000000  0.70D-17  0.29D-17  6  5   249.76
  30      1.31269741    -0.84308405  -268.10852876    -0.00000000    -0.00000000  0.15D-17  0.53D-18  6  6   257.83
  31      1.31269741    -0.84308405  -268.10852876    -0.00000000    -0.00000000  0.35D-18  0.10D-18  6  2   264.66

 Norm of t1 vector:      0.13870388      S-energy:    -0.00282142      T1 diagnostic:  0.01616708
                                                                       D1 diagnostic:  0.06279466
 Norm of t2 vector:      0.54171823      P-energy:    -0.84026263
                                         Alpha-Beta:  -0.66481611
                                         Alpha-Alpha: -0.09147598
                                         Beta-Beta:   -0.08397054

 Spin contamination <S**2-Sz**2-Sz>     0.00217298

 Memory could be reduced to 28.85 Mwords without degradation in triples
 

 RESULTS
 =======

  Reference energy                   -267.265444712212
  UCCSD singles energy                 -0.002821420028
  UCCSD pair energy                    -0.840262629057
  UCCSD correlation energy             -0.843084049085
  Triples (T) contribution             -0.024967560597
  Total correlation energy             -0.868051609681
 
  RHF-UCCSD energy                   -268.108528761297
  RHF-UCCSD[T] energy                -268.134831298727
  RHF-UCCSD-T energy                 -268.133075087085
 !RHF-UCCSD(T) energy                -268.133496321894

 Program statistics:

 Available memory in ccsd:               999997692
 Min. memory needed in ccsd:               7337057
 Max. memory used in ccsd:                10523002
 Max. memory used in cckext:              10867977 (31 integral passes)
 Max. memory used in cckint:              12633073 ( 1 integral passes)



 **********************************************************************************************************************************
 DATASETS  * FILE   NREC   LENGTH (MB)   RECORD NAMES
              1      18        3.17       500      610      700      900      950      970     1000      129      960     1100   
                                          VAR    BASINP    GEOM    SYMINP    ZMAT    AOBASIS   BASIS     P2S    ABASIS      S 
                                         1400     1410     1200     1210     1080     1600     1650     1700   
                                           T        V       H0       H01     AOSYM     SMH    MOLCAS    OPER   

              2       3        0.77       700     1000     2100   
                                         GEOM     BASIS     RHF  

 PROGRAMS   *        TOTAL  UCCSD(T)       RHF       INT
 CPU TIMES  *       328.78    325.97      1.47      1.24
 REAL TIME  *       342.00 SEC
 DISK USED  *         1.29 GB      
 SF USED    *       553.73 MB      
 GA USED    *         0.00 MB       (max)       0.00 MB       (current)
 **********************************************************************************************************************************

        UCCSD(T)        RHF-SCF 
   -268.13349632   -267.26544471
 **********************************************************************************************************************************
 Variable memory released
