
 Primary working directories    : /tmp/320938.762.gen6.q
 Secondary working directories  : /tmp/320938.762.gen6.q
 Wavefunction directory         : /home/vulcan/mel64643/wfu/
 Main file repository           : /tmp/320938.762.gen6.q/

 ARCHNAME  : Linux/x86_64
 FC        : /opt/intel/compilers_and_libraries_2016.1.150/linux/bin/intel64/ifort
 FCVERSION : 16.0.1
 BLASLIB   : -mkl
 id        : ccgc

 Nodes     nprocs
 n078         3
 Number of processes for MPI-2 version of Molpro:   nprocs(total)=    4   nprocs(compute)=    3   nprocs(helper)=    1
 ga_uses_ma=false, calling ma_init with nominal heap.
 GA-space will be limited to   8.0 MW (determined by -G option)

 Using customized tuning parameters: mindgm=10; mindgv=16; mindgc=4; mindgr=1; noblas=0; mincuda=1000; minvec=7
 default implementation of scratch files=sf  

 ***,Frequencies for min3
 memory,1000,m
 gthresh,energy=1.0d-10,orbital=1.0d-10,oneint=1.0d-16,twoint=1.0d-16,optgrad=1.0d-6,compress=1.0d-13
 geomtyp=xyz
 
  geometry = {
  12
  arbitrary comment
     C    1.776964391707    0.711398808326   -0.047331391796
     C    0.491811976407   -0.059992870174   -0.196493901896
     C    0.450332819107   -1.536294019674    0.101417522804
     O   -0.560767745493    0.727725457083    0.254500975190
     O   -1.837833440555    0.092220858092   -0.120552219894
     H    2.585189051325    0.211082138059   -0.611408512858
     H    1.659771669423    1.742195234297   -0.426295626658
     H    2.094753741928    0.773288639289    1.017756618618
     H   -0.504386337627   -1.984160916483   -0.220380659859
     H    1.282400240357   -2.048014762830   -0.417449125270
     H    0.562177039012   -1.720422849995    1.194492604213
     H   -1.988331225217    0.549100266770   -0.966954317708
  }
 
 basis=cc-pvdz
 {rhf;maxit,200}
 {uccsd(t);maxit,200}

 Variables initialized (661), CPU time= 0.01 sec
 Commands  initialized (458), CPU time= 0.00 sec, 486 directives.
 Default parameters read. Elapsed time= 0.06 sec

 Checking input...
 Passed
1


                                         ***  PROGRAM SYSTEM MOLPRO  ***
                         Copyright, University College Cardiff Consultants Limited, 2008

                                    Version 2010.1 linked May 16 2016 07:17:05


 **********************************************************************************************************************************
 LABEL *   Frequencies for min3                                                          
 Linux-4.4.3/n078(x86_64) 64 bit mpp version                                             DATE: 07-Mar-20          TIME: 05:27:20  
 **********************************************************************************************************************************

 SHA1:             9e8077add272b0f3cad6f7df79ec5211205f459d
 **********************************************************************************************************************************

 THRESHOLDS:

 ZERO    =  1.00D-12  ONEINT  =  1.00D-16  TWOINT  =  1.00D-16  PREFAC  =  1.00D-14  LOCALI  =  1.00D-09  EORDER  =  1.00D-04
 ENERGY  =  1.00D-10  ETEST   =  0.00D+00  EDENS   =  0.00D+00  THRDEDEF=  1.00D-06  GRADIENT=  1.00D-02  STEP    =  1.00D-03
 ORBITAL =  1.00D-10  CIVEC   =  1.00D-05  COEFF   =  1.00D-04  PRINTCI =  5.00D-02  PUNCHCI =  9.90D+01  OPTGRAD =  1.00D-06
 OPTENERG=  1.00D-06  OPTSTEP =  3.00D-04  THRGRAD =  1.00D-10  COMPRESS=  1.00D-13  VARMIN  =  1.00D-07  VARMAX  =  1.00D-03
 THRDOUB =  0.00D+00  THRDIV  =  1.00D-05  THRRED  =  1.00D-07  THRPSP  =  1.00D+00  THRDC   =  1.00D-10  THRCS   =  1.00D-10
 THRNRM  =  1.00D-08  THREQ   =  0.00D+00  THRDE   =  1.00D+00  THRREF  =  1.00D-05  SPARFAC =  1.00D+00  THRDLP  =  1.00D-07
 THRDIA  =  1.00D-10  THRDLS  =  1.00D-07  THRGPS  =  0.00D+00  THRKEX  =  0.00D+00  THRDIS  =  2.00D-01  THRVAR  =  1.00D-10
 THRLOC  =  1.00D-06  THRGAP  =  1.00D-06  THRLOCT = -1.00D+00  THRGAPT = -1.00D+00  THRORB  =  1.00D-06  THRMLTP =  0.00D+00
 THRCPQCI=  1.00D-10  KEXTA   =  0.00D+00  THRCOARS=  0.00D+00  SYMTOL  =  1.00D-06  GRADTOL =  1.00D-06  THROVL  =  1.00D-08
 THRORTH =  1.00D-08  GRID    =  1.00D-06  GRIDMAX =  1.00D-03  DTMAX   =  0.00D+00

 SETTING GEOMTYP        =    XYZ

 Variable memory set to 1000000000 words,  buffer space   230000 words

 SETTING BASIS          =    CC-PVDZ


 Recomputing integrals since basis changed


 Using spherical harmonics

 Library entry C      S cc-pVDZ              selected for orbital group  1
 Library entry C      P cc-pVDZ              selected for orbital group  1
 Library entry C      D cc-pVDZ              selected for orbital group  1
 Library entry O      S cc-pVDZ              selected for orbital group  2
 Library entry O      P cc-pVDZ              selected for orbital group  2
 Library entry O      D cc-pVDZ              selected for orbital group  2
 Library entry H      S cc-pVDZ              selected for orbital group  3
 Library entry H      P cc-pVDZ              selected for orbital group  3

1PROGRAM * SEWARD (Integral evaluation for generally contracted gaussian basis sets)     Author: Roland Lindh, 1990

 Geometry written to block  1 of record 700


 Point group  C1  



 ATOMIC COORDINATES

 NR  ATOM    CHARGE       X              Y              Z

   1  C       6.00    3.357976046    1.344348918   -0.089443368
   2  C       6.00    0.929389944   -0.113370094   -0.371319661
   3  C       6.00    0.851005696   -2.903174955    0.191651343
   4  O       8.00   -1.059697462    1.375201813    0.480937143
   5  O       8.00   -3.473001878    0.174272165   -0.227810680
   6  H       1.00    4.885299305    0.398887432   -1.155394644
   7  H       1.00    3.136513896    3.292271860   -0.805581985
   8  H       1.00    3.958510885    1.461303749    1.923281278
   9  H       1.00   -0.953152043   -3.749520733   -0.416459092
  10  H       1.00    2.423385245   -3.870187015   -0.788864521
  11  H       1.00    1.062360641   -3.251128017    2.257263888
  12  H       1.00   -3.757401474    1.037649123   -1.827278842

 Bond lengths in Bohr (Angstrom)

 1-2  2.846476668  1-6  2.088747443  1-7  2.087176033  1-8  2.103658961  2-3  2.847119878
     ( 1.506290578)     ( 1.105317542)     ( 1.104485988)     ( 1.113208378)     ( 1.506630951)

  2- 4  2.626529401   3- 9  2.083526967   3-10  2.090191649   3-11  2.105349717   4- 5  2.787219707
       ( 1.389899498)       ( 1.102554985)       ( 1.106081783)       ( 1.114103087)       ( 1.474933146)

  5-12  1.839728595
       ( 0.973542443)

 Bond angles

  1-2-3  120.37866573   1-2-4  108.89026347   2-1-6  109.96972413   2-1-7  110.69786868

  2- 1- 8  111.51709242   2- 3- 9  111.35582278   2- 3-10  109.86842046   2- 3-11  110.68203034

  2- 4- 5  109.20853053   3- 2- 4  118.05543914   4- 5-12   98.78459671   6- 1- 7  108.96136245

  6- 1- 8  107.73979195   7- 1- 8  107.85960387   9- 3-10  109.05973821   9- 3-11  107.82745217

 10- 3-11  107.95490385

 NUCLEAR CHARGE:                   41
 NUMBER OF PRIMITIVE AOS:         184
 NUMBER OF SYMMETRY AOS:          179
 NUMBER OF CONTRACTIONS:          105   ( 105A   )
 NUMBER OF CORE ORBITALS:           5   (   5A   )
 NUMBER OF VALENCE ORBITALS:       27   (  27A   )


 NUCLEAR REPULSION ENERGY  183.21259365


 Eigenvalues of metric

         1 0.345E-02 0.435E-02 0.105E-01 0.141E-01 0.182E-01 0.214E-01 0.331E-01 0.346E-01


 Contracted 2-electron integrals neglected if value below      1.0D-16
 AO integral compression algorithm  1   Integral accuracy      1.0D-16

     127.402 MB (compressed) written to integral file ( 93.4%)

     Node minimum: 40.894 MB, node maximum: 43.516 MB


 NUMBER OF SORTED TWO-ELECTRON INTEGRALS:    5164320.     BUFFER LENGTH:  32768
 NUMBER OF SEGMENTS:   1  SEGMENT LENGTH:    5164320      RECORD LENGTH: 524288

 Memory used in sort:       5.72 MW

 SORT1 READ    17075251. AND WROTE     5135913. INTEGRALS IN     15 RECORDS. CPU TIME:     0.20 SEC, REAL TIME:     0.23 SEC
 SORT2 READ    15396649. AND WROTE    15487395. INTEGRALS IN    468 RECORDS. CPU TIME:     0.05 SEC, REAL TIME:     0.09 SEC

 Node minimum:     5160610.  Node maximum:     5164320. integrals

 OPERATOR DM      FOR CENTER  0  COORDINATES:    0.000000    0.000000    0.000000


 **********************************************************************************************************************************
 DATASETS  * FILE   NREC   LENGTH (MB)   RECORD NAMES
              1      18        3.17       500      610      700      900      950      970     1000      129      960     1100   
                                          VAR    BASINP    GEOM    SYMINP    ZMAT    AOBASIS   BASIS     P2S    ABASIS      S 
                                         1400     1410     1200     1210     1080     1600     1650     1700   
                                           T        V       H0       H01     AOSYM     SMH    MOLCAS    OPER   

 PROGRAMS   *        TOTAL       INT
 CPU TIMES  *         0.84      0.77
 REAL TIME  *         1.23 SEC
 DISK USED  *       305.53 MB      
 GA USED    *         0.00 MB       (max)       0.00 MB       (current)
 **********************************************************************************************************************************

1PROGRAM * RHF-SCF (OPEN SHELL)       Authors: W. Meyer, H.-J. Werner


 NUMBER OF ELECTRONS:      21+   20-    SPACE SYMMETRY=1    SPIN SYMMETRY: Doublet 
 CONVERGENCE THRESHOLDS:    1.00E-10 (Density)    1.00E-11 (Energy)
 MAX. NUMBER OF ITERATIONS:      200
 INTERPOLATION TYPE:            DIIS
 INTERPOLATION STEPS:              2 (START)      1 (STEP)
 LEVEL SHIFTS:                 -0.30 (CLOSED)  0.00 (OPEN) 



 Orbital guess generated from atomic densities. Full valence occupancy:   32

 Molecular orbital dump at record        2100.2

 ITERATION    DDIFF          GRAD             ENERGY        2-EL.EN.            DIPOLE MOMENTS         DIIS
    1      0.000D+00      0.000D+00      -267.17822399    555.797617    0.57240    0.04628   -0.74940    0
    2      0.000D+00      0.617D-02      -267.24891887    555.718754    0.41506   -0.13304   -0.59863    1
    3      0.928D-02      0.214D-02      -267.26110473    555.637026    0.39467   -0.06077   -0.62603    2
    4      0.336D-02      0.912D-03      -267.26471793    555.789219    0.37986   -0.10074   -0.64246    3
    5      0.186D-02      0.364D-03      -267.26528778    555.760614    0.38232   -0.09415   -0.63543    4
    6      0.793D-03      0.110D-03      -267.26536431    555.746904    0.38055   -0.09393   -0.63818    5
    7      0.277D-03      0.512D-04      -267.26538450    555.743877    0.37982   -0.09366   -0.63768    6
    8      0.144D-03      0.273D-04      -267.26539058    555.741946    0.38009   -0.09377   -0.63789    7
    9      0.925D-04      0.115D-04      -267.26539150    555.742250    0.38027   -0.09373   -0.63765    8
   10      0.366D-04      0.502D-05      -267.26539166    555.742866    0.38053   -0.09374   -0.63772    9
   11      0.147D-04      0.197D-05      -267.26539169    555.742707    0.38058   -0.09374   -0.63772    9
   12      0.652D-05      0.672D-06      -267.26539169    555.742842    0.38060   -0.09374   -0.63772    9
   13      0.228D-05      0.227D-06      -267.26539169    555.742757    0.38060   -0.09374   -0.63771    9
   14      0.633D-06      0.759D-07      -267.26539169    555.742766    0.38061   -0.09374   -0.63772    9
   15      0.193D-06      0.300D-07      -267.26539169    555.742762    0.38061   -0.09374   -0.63771    9
   16      0.825D-07      0.145D-07      -267.26539169    555.742763    0.38061   -0.09374   -0.63771    9
   17      0.374D-07      0.749D-08      -267.26539169    555.742763    0.38061   -0.09374   -0.63771    9
   18      0.222D-07      0.342D-08      -267.26539169    555.742763    0.38061   -0.09374   -0.63771    9
   19      0.114D-07      0.133D-08      -267.26539169    555.742763    0.38061   -0.09374   -0.63771    9
   20      0.445D-08      0.568D-09      -267.26539169    555.742763    0.38061   -0.09374   -0.63771    9
   21      0.166D-08      0.287D-09      -267.26539169    555.742763    0.38061   -0.09374   -0.63771    9
   22      0.755D-09      0.162D-09      -267.26539169    555.742763    0.38061   -0.09374   -0.63771    9
   23      0.447D-09      0.798D-10      -267.26539169    555.742763    0.38061   -0.09374   -0.63771    9
   24      0.264D-09      0.318D-10      -267.26539169    555.742763    0.38061   -0.09374   -0.63771    9
   25      0.936D-10      0.130D-10      -267.26539169    555.742763    0.38061   -0.09374   -0.63771    0

 Final alpha occupancy:  21
 Final beta  occupancy:  20

 !RHF STATE 1.1 Energy               -267.265391689506
 Nuclear energy                       183.21259365
 One-electron energy                 -728.34936703
 Two-electron energy                  277.87138169
 Virial quotient                       -1.00155645
 !RHF STATE 1.1 Dipole moment           0.38060771    -0.09374135    -0.63771470
 Dipole moment /Debye                   0.96734494    -0.23825113    -1.62080292

 Orbital energies:

         1.1          2.1          3.1          4.1          5.1          6.1          7.1          8.1          9.1         10.1
    -20.630542   -20.628700   -11.279330   -11.237834   -11.232336    -1.470074    -1.240831    -1.023244    -0.945343    -0.768469

        11.1         12.1         13.1         14.1         15.1         16.1         17.1         18.1         19.1         20.1
     -0.704647    -0.642977    -0.626712    -0.588838    -0.545143    -0.543313    -0.538972    -0.516919    -0.493012    -0.469864

        21.1         22.1         23.1
     -0.352402     0.181321     0.183528


 **********************************************************************************************************************************
 DATASETS  * FILE   NREC   LENGTH (MB)   RECORD NAMES
              1      18        3.17       500      610      700      900      950      970     1000      129      960     1100   
                                          VAR    BASINP    GEOM    SYMINP    ZMAT    AOBASIS   BASIS     P2S    ABASIS      S 
                                         1400     1410     1200     1210     1080     1600     1650     1700   
                                           T        V       H0       H01     AOSYM     SMH    MOLCAS    OPER   

              2       3        0.77       700     1000     2100   
                                         GEOM     BASIS     RHF  

 PROGRAMS   *        TOTAL       RHF       INT
 CPU TIMES  *         1.76      0.92      0.77
 REAL TIME  *         2.29 SEC
 DISK USED  *       322.10 MB      
 SF USED    *         0.04 MB      
 GA USED    *         0.00 MB       (max)       0.00 MB       (current)
 **********************************************************************************************************************************


1PROGRAM * CCSD (Unrestricted open-shell coupled cluster)     Authors: C. Hampel, H.-J. Werner, 1991, M. Deegan, P.J. Knowles, 1992


 Convergence thresholds:  THRVAR = 1.00D-08  THRDEN = 1.00D-10

 CCSD(T)     terms to be evaluated (factor= 1.000)


 Number of core orbitals:           5 (   5 )
 Number of closed-shell orbitals:  15 (  15 )
 Number of active  orbitals:        1 (   1 )
 Number of external orbitals:      84 (  84 )

 Memory could be reduced to 24.91 Mwords without degradation in triples

 Number of N-1 electron functions:              31
 Number of N-2 electron functions:             465
 Number of singly external CSFs:              2635
 Number of doubly external CSFs:           2537250
 Total number of CSFs:                     2539885

 Molecular orbitals read from record     2100.2  Type=RHF/CANONICAL (state 1.1)

 Integral transformation finished. Total CPU:   0.70 sec, npass=  1  Memory used:  12.63 MW

 Starting RMP2 calculation

 ITER.      SQ.NORM     CORR.ENERGY   TOTAL ENERGY   ENERGY CHANGE        DEN1      VAR(S)    VAR(P)  DIIS     TIME
   1      1.24303637    -0.78636520  -268.05175689    -0.78636520    -0.00305011  0.20D-04  0.11D-02  1  1     0.96
   2      1.24567832    -0.78965455  -268.05504624    -0.00328935    -0.00000475  0.54D-06  0.19D-05  2  2     1.19
   3      1.24574390    -0.78969663  -268.05508832    -0.00004208    -0.00000003  0.16D-07  0.68D-08  3  3     1.46
   4      1.24574485    -0.78969663  -268.05508832    -0.00000000    -0.00000000  0.27D-09  0.38D-10  4  4     1.74
   5      1.24574494    -0.78969667  -268.05508835    -0.00000003    -0.00000000  0.25D-11  0.65D-12  5  5     2.05
   6      1.24574495    -0.78969667  -268.05508836    -0.00000001    -0.00000000  0.28D-13  0.86D-14  6  6     2.37
   7      1.24574495    -0.78969667  -268.05508836     0.00000000    -0.00000000  0.47D-15  0.12D-15  6  1     2.70
   8      1.24574495    -0.78969667  -268.05508836     0.00000000    -0.00000000  0.59D-17  0.13D-17  6  2     3.03

 Norm of t1 vector:      0.03892835      S-energy:    -0.00227117      T1 diagnostic:  0.00055025
 Norm of t2 vector:      0.49419585      P-energy:    -0.78742550
                                         Alpha-Beta:  -0.59341352
                                         Alpha-Alpha: -0.10093670
                                         Beta-Beta:   -0.09307528

 Spin contamination <S**2-Sz**2-Sz>     0.00104020
  Reference energy                   -267.265391689506
  RHF-RMP2 correlation energy          -0.789696670931
 !RHF-RMP2 energy                    -268.055088360437

 Starting UCCSD calculation

 ITER.      SQ.NORM     CORR.ENERGY   TOTAL ENERGY   ENERGY CHANGE        DEN1      VAR(S)    VAR(P)  DIIS     TIME
   1      1.26281413    -0.80904013  -268.07443182    -0.80904013    -0.02515872  0.38D-02  0.59D-02  1  1     7.70
   2      1.29159435    -0.83645216  -268.10184385    -0.02741203    -0.00201161  0.22D-03  0.66D-03  2  2    12.37
   3      1.30153833    -0.84095117  -268.10634286    -0.00449900    -0.00032472  0.19D-03  0.56D-04  3  3    17.07
   4      1.30645308    -0.84242877  -268.10782046    -0.00147761    -0.00007209  0.43D-04  0.14D-04  4  4    21.79
   5      1.30918314    -0.84281696  -268.10820865    -0.00038819    -0.00002367  0.19D-04  0.32D-05  5  5    26.54
   6      1.31112182    -0.84302143  -268.10841312    -0.00020447    -0.00000646  0.42D-05  0.12D-05  6  6    31.33
   7      1.31207056    -0.84308016  -268.10847185    -0.00005873    -0.00000208  0.14D-05  0.37D-06  6  2    36.13
   8      1.31251211    -0.84312285  -268.10851453    -0.00004269    -0.00000065  0.45D-06  0.11D-06  6  1    40.90
   9      1.31269728    -0.84312743  -268.10851911    -0.00000458    -0.00000022  0.15D-06  0.35D-07  6  4    45.66
  10      1.31276053    -0.84313036  -268.10852205    -0.00000294    -0.00000005  0.35D-07  0.95D-08  6  3    50.44
  11      1.31279008    -0.84312910  -268.10852079     0.00000126    -0.00000002  0.13D-07  0.28D-08  6  5    55.21
  12      1.31280048    -0.84312884  -268.10852053     0.00000026    -0.00000000  0.26D-08  0.96D-09  6  6    59.99
  13      1.31279935    -0.84312793  -268.10851962     0.00000091    -0.00000000  0.96D-09  0.29D-09  6  2    64.77
  14      1.31279415    -0.84312709  -268.10851878     0.00000084    -0.00000000  0.21D-09  0.68D-10  6  1    69.55
  15      1.31279007    -0.84312650  -268.10851819     0.00000059    -0.00000000  0.78D-10  0.19D-10  6  4    74.31
  16      1.31278688    -0.84312612  -268.10851780     0.00000038    -0.00000000  0.28D-10  0.63D-11  6  3    79.09
  17      1.31278468    -0.84312588  -268.10851757     0.00000024    -0.00000000  0.10D-10  0.24D-11  6  5    83.85
  18      1.31278378    -0.84312582  -268.10851751     0.00000006    -0.00000000  0.41D-11  0.87D-12  6  6    88.64
  19      1.31278317    -0.84312578  -268.10851747     0.00000003    -0.00000000  0.16D-11  0.37D-12  6  2    93.42
  20      1.31278285    -0.84312577  -268.10851746     0.00000001    -0.00000000  0.60D-12  0.13D-12  6  1    98.20
  21      1.31278268    -0.84312576  -268.10851745     0.00000001    -0.00000000  0.28D-12  0.58D-13  6  4   102.96
  22      1.31278256    -0.84312575  -268.10851744     0.00000001    -0.00000000  0.74D-13  0.21D-13  6  3   107.75
  23      1.31278250    -0.84312575  -268.10851744     0.00000000    -0.00000000  0.21D-13  0.63D-14  6  5   112.51
  24      1.31278250    -0.84312575  -268.10851744    -0.00000000    -0.00000000  0.68D-14  0.23D-14  6  6   118.44
  25      1.31278250    -0.84312575  -268.10851744    -0.00000000    -0.00000000  0.21D-14  0.53D-15  6  2   124.72
  26      1.31278251    -0.84312575  -268.10851744    -0.00000000    -0.00000000  0.77D-15  0.15D-15  6  1   131.01
  27      1.31278252    -0.84312575  -268.10851744    -0.00000000    -0.00000000  0.20D-15  0.63D-16  6  3   137.30
  28      1.31278252    -0.84312575  -268.10851744    -0.00000000    -0.00000000  0.30D-16  0.11D-16  6  4   143.57
  29      1.31278253    -0.84312575  -268.10851744    -0.00000000    -0.00000000  0.71D-17  0.29D-17  6  5   149.85
  30      1.31278253    -0.84312575  -268.10851744    -0.00000000    -0.00000000  0.15D-17  0.54D-18  6  6   156.06
  31      1.31278253    -0.84312575  -268.10851744    -0.00000000    -0.00000000  0.35D-18  0.10D-18  6  2   162.33

 Norm of t1 vector:      0.13871293      S-energy:    -0.00282078      T1 diagnostic:  0.01616893
                                                                       D1 diagnostic:  0.06283003
 Norm of t2 vector:      0.54179447      P-energy:    -0.84030497
                                         Alpha-Beta:  -0.66486817
                                         Alpha-Alpha: -0.09146981
                                         Beta-Beta:   -0.08396700

 Spin contamination <S**2-Sz**2-Sz>     0.00217065

 Memory could be reduced to 28.85 Mwords without degradation in triples
 

 RESULTS
 =======

  Reference energy                   -267.265391689506
  UCCSD singles energy                 -0.002820782019
  UCCSD pair energy                    -0.840304971091
  UCCSD correlation energy             -0.843125753110
  Triples (T) contribution             -0.024978395619
  Total correlation energy             -0.868104148728
 
  RHF-UCCSD energy                   -268.108517442616
  RHF-UCCSD[T] energy                -268.134831971973
  RHF-UCCSD-T energy                 -268.133074285649
 !RHF-UCCSD(T) energy                -268.133495838234

 Program statistics:

 Available memory in ccsd:               999997692
 Min. memory needed in ccsd:               7337057
 Max. memory used in ccsd:                10523002
 Max. memory used in cckext:              10867977 (31 integral passes)
 Max. memory used in cckint:              12633073 ( 1 integral passes)



 **********************************************************************************************************************************
 DATASETS  * FILE   NREC   LENGTH (MB)   RECORD NAMES
              1      18        3.17       500      610      700      900      950      970     1000      129      960     1100   
                                          VAR    BASINP    GEOM    SYMINP    ZMAT    AOBASIS   BASIS     P2S    ABASIS      S 
                                         1400     1410     1200     1210     1080     1600     1650     1700   
                                           T        V       H0       H01     AOSYM     SMH    MOLCAS    OPER   

              2       3        0.77       700     1000     2100   
                                         GEOM     BASIS     RHF  

 PROGRAMS   *        TOTAL  UCCSD(T)       RHF       INT
 CPU TIMES  *       206.86    205.10      0.92      0.77
 REAL TIME  *       216.46 SEC
 DISK USED  *         1.29 GB      
 SF USED    *       553.73 MB      
 GA USED    *         0.00 MB       (max)       0.00 MB       (current)
 **********************************************************************************************************************************

        UCCSD(T)        RHF-SCF 
   -268.13349584   -267.26539169
 **********************************************************************************************************************************
 Variable memory released
