
 Primary working directories    : /tmp/320938.835.gen4.q
 Secondary working directories  : /tmp/320938.835.gen4.q
 Wavefunction directory         : /home/vulcan/mel64643/wfu/
 Main file repository           : /tmp/320938.835.gen4.q/

 ARCHNAME  : Linux/x86_64
 FC        : /opt/intel/compilers_and_libraries_2016.1.150/linux/bin/intel64/ifort
 FCVERSION : 16.0.1
 BLASLIB   : -mkl
 id        : ccgc

 Nodes     nprocs
 n033         3
 Number of processes for MPI-2 version of Molpro:   nprocs(total)=    4   nprocs(compute)=    3   nprocs(helper)=    1
 ga_uses_ma=false, calling ma_init with nominal heap.
 GA-space will be limited to   8.0 MW (determined by -G option)

 Using customized tuning parameters: mindgm=10; mindgv=16; mindgc=4; mindgr=1; noblas=0; mincuda=1000; minvec=7
 default implementation of scratch files=sf  

 ***,Frequencies for min3
 memory,1000,m
 gthresh,energy=1.0d-10,orbital=1.0d-10,oneint=1.0d-16,twoint=1.0d-16,optgrad=1.0d-6,compress=1.0d-13
 geomtyp=xyz
 
  geometry = {
  12
  arbitrary comment
     C    1.776964391707    0.711398808326   -0.047331391796
     C    0.491811976407   -0.059992870174   -0.196493901896
     C    0.450332819107   -1.536294019674    0.101417522804
     O   -0.560767745493    0.727234937526    0.254453964104
     O   -1.837840335593    0.092269037726   -0.120531795196
     H    2.585373063107    0.213706752431   -0.611492437628
     H    1.660863214809    1.742233884566   -0.424924584867
     H    2.095722488255    0.773711478875    1.015991450114
     H   -0.505361962333   -1.983054167105   -0.219584749303
     H    1.281343638028   -2.048142469108   -0.416983820185
     H    0.561661333862   -1.718934827334    1.194870738071
     H   -1.987918167280    0.550567352357   -0.967693670471
  }
 
 basis=cc-pvdz
 {rhf;maxit,200}
 {uccsd(t);maxit,200}

 Variables initialized (661), CPU time= 0.00 sec
 Commands  initialized (458), CPU time= 0.01 sec, 486 directives.
 Default parameters read. Elapsed time= 0.05 sec

 Checking input...
 Passed
1


                                         ***  PROGRAM SYSTEM MOLPRO  ***
                         Copyright, University College Cardiff Consultants Limited, 2008

                                    Version 2010.1 linked May 16 2016 07:17:05


 **********************************************************************************************************************************
 LABEL *   Frequencies for min3                                                          
 Linux-4.4.3/n033(x86_64) 64 bit mpp version                                             DATE: 07-Mar-20          TIME: 05:53:05  
 **********************************************************************************************************************************

 SHA1:             9e8077add272b0f3cad6f7df79ec5211205f459d
 **********************************************************************************************************************************

 THRESHOLDS:

 ZERO    =  1.00D-12  ONEINT  =  1.00D-16  TWOINT  =  1.00D-16  PREFAC  =  1.00D-14  LOCALI  =  1.00D-09  EORDER  =  1.00D-04
 ENERGY  =  1.00D-10  ETEST   =  0.00D+00  EDENS   =  0.00D+00  THRDEDEF=  1.00D-06  GRADIENT=  1.00D-02  STEP    =  1.00D-03
 ORBITAL =  1.00D-10  CIVEC   =  1.00D-05  COEFF   =  1.00D-04  PRINTCI =  5.00D-02  PUNCHCI =  9.90D+01  OPTGRAD =  1.00D-06
 OPTENERG=  1.00D-06  OPTSTEP =  3.00D-04  THRGRAD =  1.00D-10  COMPRESS=  1.00D-13  VARMIN  =  1.00D-07  VARMAX  =  1.00D-03
 THRDOUB =  0.00D+00  THRDIV  =  1.00D-05  THRRED  =  1.00D-07  THRPSP  =  1.00D+00  THRDC   =  1.00D-10  THRCS   =  1.00D-10
 THRNRM  =  1.00D-08  THREQ   =  0.00D+00  THRDE   =  1.00D+00  THRREF  =  1.00D-05  SPARFAC =  1.00D+00  THRDLP  =  1.00D-07
 THRDIA  =  1.00D-10  THRDLS  =  1.00D-07  THRGPS  =  0.00D+00  THRKEX  =  0.00D+00  THRDIS  =  2.00D-01  THRVAR  =  1.00D-10
 THRLOC  =  1.00D-06  THRGAP  =  1.00D-06  THRLOCT = -1.00D+00  THRGAPT = -1.00D+00  THRORB  =  1.00D-06  THRMLTP =  0.00D+00
 THRCPQCI=  1.00D-10  KEXTA   =  0.00D+00  THRCOARS=  0.00D+00  SYMTOL  =  1.00D-06  GRADTOL =  1.00D-06  THROVL  =  1.00D-08
 THRORTH =  1.00D-08  GRID    =  1.00D-06  GRIDMAX =  1.00D-03  DTMAX   =  0.00D+00

 SETTING GEOMTYP        =    XYZ

 Variable memory set to 1000000000 words,  buffer space   230000 words

 SETTING BASIS          =    CC-PVDZ


 Recomputing integrals since basis changed


 Using spherical harmonics

 Library entry C      S cc-pVDZ              selected for orbital group  1
 Library entry C      P cc-pVDZ              selected for orbital group  1
 Library entry C      D cc-pVDZ              selected for orbital group  1
 Library entry O      S cc-pVDZ              selected for orbital group  2
 Library entry O      P cc-pVDZ              selected for orbital group  2
 Library entry O      D cc-pVDZ              selected for orbital group  2
 Library entry H      S cc-pVDZ              selected for orbital group  3
 Library entry H      P cc-pVDZ              selected for orbital group  3

1PROGRAM * SEWARD (Integral evaluation for generally contracted gaussian basis sets)     Author: Roland Lindh, 1990

 Geometry written to block  1 of record 700


 Point group  C1  



 ATOMIC COORDINATES

 NR  ATOM    CHARGE       X              Y              Z

   1  C       6.00    3.357976046    1.344348918   -0.089443368
   2  C       6.00    0.929389944   -0.113370094   -0.371319661
   3  C       6.00    0.851005696   -2.903174955    0.191651343
   4  O       8.00   -1.059697462    1.374274865    0.480848305
   5  O       8.00   -3.473014908    0.174363212   -0.227772083
   6  H       1.00    4.885647037    0.403847235   -1.155553239
   7  H       1.00    3.138576618    3.292344899   -0.802991092
   8  H       1.00    3.960341550    1.462102800    1.919945593
   9  H       1.00   -0.954995706   -3.747429280   -0.414955039
  10  H       1.00    2.421388556   -3.870428345   -0.787985221
  11  H       1.00    1.061386100   -3.248316061    2.257978457
  12  H       1.00   -3.756620908    1.040421513   -1.828676016

 Bond lengths in Bohr (Angstrom)

 1-2  2.846476668  1-6  2.086842670  1-7  2.086138731  1-8  2.101036452  2-3  2.847119878
     ( 1.506290578)     ( 1.104309580)     ( 1.103937071)     ( 1.111820606)     ( 1.506630951)

  2- 4  2.625975338   3- 9  2.083837262   3-10  2.088389151   3-11  2.105490452   4- 5  2.786760112
       ( 1.389606300)       ( 1.102719186)       ( 1.105127942)       ( 1.114177561)       ( 1.474689938)

  5-12  1.842113663
       ( 0.974804567)

 Bond angles

  1-2-3  120.37866573   1-2-4  108.90555081   2-1-6  110.07116632   2-1-7  110.76895083

  2- 1- 8  111.59340489   2- 3- 9  111.30227336   2- 3-10  109.89986815   2- 3-11  110.60534914

  2- 4- 5  109.23946113   3- 2- 4  118.03986083   4- 5-12   98.73578560   6- 1- 7  108.84975043

  6- 1- 8  107.69613154   7- 1- 8  107.75456982   9- 3-10  109.11734013   9- 3-11  107.81055656

 10- 3-11  108.01725597

 NUCLEAR CHARGE:                   41
 NUMBER OF PRIMITIVE AOS:         184
 NUMBER OF SYMMETRY AOS:          179
 NUMBER OF CONTRACTIONS:          105   ( 105A   )
 NUMBER OF CORE ORBITALS:           5   (   5A   )
 NUMBER OF VALENCE ORBITALS:       27   (  27A   )


 NUCLEAR REPULSION ENERGY  183.22933735


 Eigenvalues of metric

         1 0.345E-02 0.435E-02 0.105E-01 0.141E-01 0.182E-01 0.214E-01 0.331E-01 0.345E-01


 Contracted 2-electron integrals neglected if value below      1.0D-16
 AO integral compression algorithm  1   Integral accuracy      1.0D-16

     127.664 MB (compressed) written to integral file ( 93.2%)

     Node minimum: 41.419 MB, node maximum: 44.302 MB


 NUMBER OF SORTED TWO-ELECTRON INTEGRALS:    5164320.     BUFFER LENGTH:  32768
 NUMBER OF SEGMENTS:   1  SEGMENT LENGTH:    5164320      RECORD LENGTH: 524288

 Memory used in sort:       5.72 MW

 SORT1 READ    17075251. AND WROTE     5135922. INTEGRALS IN     15 RECORDS. CPU TIME:     0.24 SEC, REAL TIME:     0.28 SEC
 SORT2 READ    15396677. AND WROTE    15487395. INTEGRALS IN    480 RECORDS. CPU TIME:     0.07 SEC, REAL TIME:     0.12 SEC

 Node minimum:     5160610.  Node maximum:     5164320. integrals

 OPERATOR DM      FOR CENTER  0  COORDINATES:    0.000000    0.000000    0.000000


 **********************************************************************************************************************************
 DATASETS  * FILE   NREC   LENGTH (MB)   RECORD NAMES
              1      18        3.17       500      610      700      900      950      970     1000      129      960     1100   
                                          VAR    BASINP    GEOM    SYMINP    ZMAT    AOBASIS   BASIS     P2S    ABASIS      S 
                                         1400     1410     1200     1210     1080     1600     1650     1700   
                                           T        V       H0       H01     AOSYM     SMH    MOLCAS    OPER   

 PROGRAMS   *        TOTAL       INT
 CPU TIMES  *         1.28      1.22
 REAL TIME  *         1.58 SEC
 DISK USED  *       305.70 MB      
 GA USED    *         0.00 MB       (max)       0.00 MB       (current)
 **********************************************************************************************************************************

1PROGRAM * RHF-SCF (OPEN SHELL)       Authors: W. Meyer, H.-J. Werner


 NUMBER OF ELECTRONS:      21+   20-    SPACE SYMMETRY=1    SPIN SYMMETRY: Doublet 
 CONVERGENCE THRESHOLDS:    1.00E-10 (Density)    1.00E-11 (Energy)
 MAX. NUMBER OF ITERATIONS:      200
 INTERPOLATION TYPE:            DIIS
 INTERPOLATION STEPS:              2 (START)      1 (STEP)
 LEVEL SHIFTS:                 -0.30 (CLOSED)  0.00 (OPEN) 



 Orbital guess generated from atomic densities. Full valence occupancy:   32

 Molecular orbital dump at record        2100.2

 ITERATION    DDIFF          GRAD             ENERGY        2-EL.EN.            DIPOLE MOMENTS         DIIS
    1      0.000D+00      0.000D+00      -267.17826105    555.831675    0.56958    0.04904   -0.74977    0
    2      0.000D+00      0.617D-02      -267.24896454    555.752918    0.41448   -0.13110   -0.59895    1
    3      0.928D-02      0.214D-02      -267.26114098    555.670716    0.39431   -0.05910   -0.62626    2
    4      0.336D-02      0.912D-03      -267.26474945    555.823008    0.37983   -0.09920   -0.64262    3
    5      0.186D-02      0.364D-03      -267.26531867    555.794380    0.38242   -0.09269   -0.63558    4
    6      0.792D-03      0.110D-03      -267.26539516    555.780597    0.38070   -0.09248   -0.63831    5
    7      0.277D-03      0.511D-04      -267.26541532    555.777600    0.38000   -0.09222   -0.63780    6
    8      0.144D-03      0.273D-04      -267.26542139    555.775647    0.38028   -0.09233   -0.63801    7
    9      0.925D-04      0.115D-04      -267.26542231    555.775965    0.38047   -0.09229   -0.63777    8
   10      0.366D-04      0.501D-05      -267.26542247    555.776577    0.38072   -0.09230   -0.63784    9
   11      0.146D-04      0.196D-05      -267.26542249    555.776418    0.38077   -0.09230   -0.63784    9
   12      0.651D-05      0.671D-06      -267.26542250    555.776553    0.38079   -0.09230   -0.63784    9
   13      0.227D-05      0.226D-06      -267.26542250    555.776468    0.38080   -0.09230   -0.63784    9
   14      0.633D-06      0.757D-07      -267.26542250    555.776477    0.38080   -0.09230   -0.63784    9
   15      0.193D-06      0.300D-07      -267.26542250    555.776473    0.38080   -0.09230   -0.63784    9
   16      0.823D-07      0.145D-07      -267.26542250    555.776475    0.38080   -0.09230   -0.63784    9
   17      0.373D-07      0.749D-08      -267.26542250    555.776475    0.38080   -0.09230   -0.63784    9
   18      0.222D-07      0.341D-08      -267.26542250    555.776475    0.38080   -0.09230   -0.63784    9
   19      0.114D-07      0.133D-08      -267.26542250    555.776475    0.38080   -0.09230   -0.63784    9
   20      0.444D-08      0.566D-09      -267.26542250    555.776475    0.38080   -0.09230   -0.63784    9
   21      0.166D-08      0.286D-09      -267.26542250    555.776475    0.38080   -0.09230   -0.63784    9
   22      0.752D-09      0.161D-09      -267.26542250    555.776475    0.38080   -0.09230   -0.63784    9
   23      0.445D-09      0.794D-10      -267.26542250    555.776475    0.38080   -0.09230   -0.63784    9
   24      0.263D-09      0.316D-10      -267.26542250    555.776475    0.38080   -0.09230   -0.63784    9
   25      0.931D-10      0.129D-10      -267.26542250    555.776475    0.38080   -0.09230   -0.63784    0

 Final alpha occupancy:  21
 Final beta  occupancy:  20

 !RHF STATE 1.1 Energy               -267.265422497248
 Nuclear energy                       183.22933735
 One-electron energy                 -728.38299724
 Two-electron energy                  277.88823739
 Virial quotient                       -1.00154305
 !RHF STATE 1.1 Dipole moment           0.38079848    -0.09230014    -0.63783574
 Dipole moment /Debye                   0.96782981    -0.23458820    -1.62111056

 Orbital energies:

         1.1          2.1          3.1          4.1          5.1          6.1          7.1          8.1          9.1         10.1
    -20.630474   -20.628847   -11.279267   -11.237475   -11.232215    -1.470113    -1.240645    -1.023259    -0.945516    -0.768575

        11.1         12.1         13.1         14.1         15.1         16.1         17.1         18.1         19.1         20.1
     -0.704509    -0.643088    -0.626758    -0.588905    -0.545074    -0.543412    -0.539184    -0.516968    -0.493035    -0.469798

        21.1         22.1         23.1
     -0.352287     0.181287     0.183576


 **********************************************************************************************************************************
 DATASETS  * FILE   NREC   LENGTH (MB)   RECORD NAMES
              1      18        3.17       500      610      700      900      950      970     1000      129      960     1100   
                                          VAR    BASINP    GEOM    SYMINP    ZMAT    AOBASIS   BASIS     P2S    ABASIS      S 
                                         1400     1410     1200     1210     1080     1600     1650     1700   
                                           T        V       H0       H01     AOSYM     SMH    MOLCAS    OPER   

              2       3        0.77       700     1000     2100   
                                         GEOM     BASIS     RHF  

 PROGRAMS   *        TOTAL       RHF       INT
 CPU TIMES  *         2.80      1.52      1.22
 REAL TIME  *         3.25 SEC
 DISK USED  *       322.26 MB      
 SF USED    *         0.04 MB      
 GA USED    *         0.00 MB       (max)       0.00 MB       (current)
 **********************************************************************************************************************************


1PROGRAM * CCSD (Unrestricted open-shell coupled cluster)     Authors: C. Hampel, H.-J. Werner, 1991, M. Deegan, P.J. Knowles, 1992


 Convergence thresholds:  THRVAR = 1.00D-08  THRDEN = 1.00D-10

 CCSD(T)     terms to be evaluated (factor= 1.000)


 Number of core orbitals:           5 (   5 )
 Number of closed-shell orbitals:  15 (  15 )
 Number of active  orbitals:        1 (   1 )
 Number of external orbitals:      84 (  84 )

 Memory could be reduced to 24.91 Mwords without degradation in triples

 Number of N-1 electron functions:              31
 Number of N-2 electron functions:             465
 Number of singly external CSFs:              2635
 Number of doubly external CSFs:           2537250
 Total number of CSFs:                     2539885

 Molecular orbitals read from record     2100.2  Type=RHF/CANONICAL (state 1.1)

 Integral transformation finished. Total CPU:   1.60 sec, npass=  1  Memory used:  12.63 MW

 Starting RMP2 calculation

 ITER.      SQ.NORM     CORR.ENERGY   TOTAL ENERGY   ENERGY CHANGE        DEN1      VAR(S)    VAR(P)  DIIS     TIME
   1      1.24299702    -0.78635693  -268.05177942    -0.78635693    -0.00304899  0.20D-04  0.11D-02  1  1     2.09
   2      1.24563732    -0.78964502  -268.05506752    -0.00328810    -0.00000474  0.54D-06  0.19D-05  2  2     2.50
   3      1.24570283    -0.78968706  -268.05510956    -0.00004204    -0.00000003  0.16D-07  0.68D-08  3  3     2.96
   4      1.24570378    -0.78968706  -268.05510956    -0.00000000    -0.00000000  0.27D-09  0.38D-10  4  4     3.43
   5      1.24570386    -0.78968710  -268.05510959    -0.00000003    -0.00000000  0.25D-11  0.65D-12  5  5     3.94
   6      1.24570388    -0.78968710  -268.05510960    -0.00000001    -0.00000000  0.28D-13  0.86D-14  6  6     4.48
   7      1.24570388    -0.78968710  -268.05510960     0.00000000    -0.00000000  0.47D-15  0.12D-15  6  1     5.02
   8      1.24570388    -0.78968710  -268.05510960     0.00000000    -0.00000000  0.59D-17  0.13D-17  6  2     5.57

 Norm of t1 vector:      0.03892894      S-energy:    -0.00227148      T1 diagnostic:  0.00055010
 Norm of t2 vector:      0.49415424      P-energy:    -0.78741562
                                         Alpha-Beta:  -0.59339423
                                         Alpha-Alpha: -0.10094142
                                         Beta-Beta:   -0.09307997

 Spin contamination <S**2-Sz**2-Sz>     0.00104024
  Reference energy                   -267.265422497249
  RHF-RMP2 correlation energy          -0.789687101022
 !RHF-RMP2 energy                    -268.055109598272

 Starting UCCSD calculation

 ITER.      SQ.NORM     CORR.ENERGY   TOTAL ENERGY   ENERGY CHANGE        DEN1      VAR(S)    VAR(P)  DIIS     TIME
   1      1.26276190    -0.80902566  -268.07444816    -0.80902566    -0.02515211  0.38D-02  0.59D-02  1  1    15.49
   2      1.29152601    -0.83642968  -268.10185217    -0.02740402    -0.00201064  0.22D-03  0.66D-03  2  2    25.36
   3      1.30146343    -0.84092598  -268.10634848    -0.00449630    -0.00032461  0.19D-03  0.56D-04  3  3    35.17
   4      1.30637637    -0.84240284  -268.10782534    -0.00147686    -0.00007210  0.43D-04  0.14D-04  4  4    44.76
   5      1.30910690    -0.84279098  -268.10821348    -0.00038814    -0.00002368  0.19D-04  0.32D-05  5  5    54.73
   6      1.31104675    -0.84299552  -268.10841801    -0.00020453    -0.00000646  0.42D-05  0.12D-05  6  6    64.58
   7      1.31199652    -0.84305433  -268.10847682    -0.00005881    -0.00000208  0.14D-05  0.37D-06  6  2    74.30
   8      1.31243843    -0.84309702  -268.10851952    -0.00004270    -0.00000065  0.45D-06  0.11D-06  6  1    83.99
   9      1.31262381    -0.84310161  -268.10852411    -0.00000459    -0.00000022  0.15D-06  0.35D-07  6  4    94.00
  10      1.31268700    -0.84310453  -268.10852703    -0.00000292    -0.00000005  0.35D-07  0.95D-08  6  3   104.00
  11      1.31271654    -0.84310328  -268.10852577     0.00000126    -0.00000002  0.13D-07  0.28D-08  6  5   113.95
  12      1.31272694    -0.84310302  -268.10852552     0.00000026    -0.00000000  0.26D-08  0.95D-09  6  6   123.62
  13      1.31272579    -0.84310211  -268.10852460     0.00000091    -0.00000000  0.96D-09  0.28D-09  6  2   133.49
  14      1.31272058    -0.84310126  -268.10852376     0.00000084    -0.00000000  0.21D-09  0.67D-10  6  1   143.17
  15      1.31271650    -0.84310067  -268.10852317     0.00000059    -0.00000000  0.78D-10  0.19D-10  6  4   153.03
  16      1.31271332    -0.84310029  -268.10852279     0.00000038    -0.00000000  0.28D-10  0.63D-11  6  3   162.71
  17      1.31271112    -0.84310005  -268.10852255     0.00000024    -0.00000000  0.10D-10  0.24D-11  6  5   172.60
  18      1.31271021    -0.84309999  -268.10852249     0.00000006    -0.00000000  0.41D-11  0.87D-12  6  6   182.56
  19      1.31270960    -0.84309996  -268.10852245     0.00000003    -0.00000000  0.16D-11  0.37D-12  6  2   192.54
  20      1.31270928    -0.84309995  -268.10852244     0.00000001    -0.00000000  0.60D-12  0.13D-12  6  1   200.55
  21      1.31270912    -0.84309994  -268.10852243     0.00000001    -0.00000000  0.28D-12  0.58D-13  6  4   207.40
  22      1.31270900    -0.84309993  -268.10852242     0.00000001    -0.00000000  0.74D-13  0.21D-13  6  3   214.27
  23      1.31270894    -0.84309992  -268.10852242     0.00000000    -0.00000000  0.21D-13  0.63D-14  6  5   221.13
  24      1.31270893    -0.84309992  -268.10852242    -0.00000000    -0.00000000  0.67D-14  0.22D-14  6  6   227.98
  25      1.31270894    -0.84309993  -268.10852242    -0.00000000    -0.00000000  0.21D-14  0.52D-15  6  2   234.82
  26      1.31270894    -0.84309993  -268.10852242    -0.00000000    -0.00000000  0.77D-15  0.15D-15  6  1   242.56
  27      1.31270895    -0.84309993  -268.10852242    -0.00000000    -0.00000000  0.20D-15  0.62D-16  6  3   252.63
  28      1.31270896    -0.84309993  -268.10852242    -0.00000000    -0.00000000  0.30D-16  0.11D-16  6  4   262.40
  29      1.31270896    -0.84309993  -268.10852243    -0.00000000    -0.00000000  0.70D-17  0.29D-17  6  5   272.18
  30      1.31270896    -0.84309993  -268.10852243    -0.00000000    -0.00000000  0.15D-17  0.54D-18  6  6   282.24
  31      1.31270896    -0.84309993  -268.10852243    -0.00000000    -0.00000000  0.35D-18  0.10D-18  6  2   291.93

 Norm of t1 vector:      0.13872103      S-energy:    -0.00282102      T1 diagnostic:  0.01617000
                                                                       D1 diagnostic:  0.06282168
 Norm of t2 vector:      0.54172450      P-energy:    -0.84027891
                                         Alpha-Beta:  -0.66483073
                                         Alpha-Alpha: -0.09147579
                                         Beta-Beta:   -0.08397239

 Spin contamination <S**2-Sz**2-Sz>     0.00217241

 Memory could be reduced to 28.85 Mwords without degradation in triples
 

 RESULTS
 =======

  Reference energy                   -267.265422497249
  UCCSD singles energy                 -0.002821019483
  UCCSD pair energy                    -0.840278908462
  UCCSD correlation energy             -0.843099927945
  Triples (T) contribution             -0.024971912929
  Total correlation energy             -0.868071840873
 
  RHF-UCCSD energy                   -268.108522425194
  RHF-UCCSD[T] energy                -268.134830217617
  RHF-UCCSD-T energy                 -268.133072858815
 !RHF-UCCSD(T) energy                -268.133494338123

 Program statistics:

 Available memory in ccsd:               999997692
 Min. memory needed in ccsd:               7337057
 Max. memory used in ccsd:                10523002
 Max. memory used in cckext:              10867977 (31 integral passes)
 Max. memory used in cckint:              12633073 ( 1 integral passes)



 **********************************************************************************************************************************
 DATASETS  * FILE   NREC   LENGTH (MB)   RECORD NAMES
              1      18        3.17       500      610      700      900      950      970     1000      129      960     1100   
                                          VAR    BASINP    GEOM    SYMINP    ZMAT    AOBASIS   BASIS     P2S    ABASIS      S 
                                         1400     1410     1200     1210     1080     1600     1650     1700   
                                           T        V       H0       H01     AOSYM     SMH    MOLCAS    OPER   

              2       3        0.77       700     1000     2100   
                                         GEOM     BASIS     RHF  

 PROGRAMS   *        TOTAL  UCCSD(T)       RHF       INT
 CPU TIMES  *       373.00    370.20      1.52      1.22
 REAL TIME  *       387.25 SEC
 DISK USED  *         1.29 GB      
 SF USED    *       553.73 MB      
 GA USED    *         0.00 MB       (max)       0.00 MB       (current)
 **********************************************************************************************************************************

        UCCSD(T)        RHF-SCF 
   -268.13349434   -267.26542250
 **********************************************************************************************************************************
 Variable memory released
