
    -----------------------------------------------------------------------
          Psi4: An Open-Source Ab Initio Electronic Structure Package
                               Psi4 1.4a2.dev478 

                         Git: Rev {master} f722895 dirty


    R. M. Parrish, L. A. Burns, D. G. A. Smith, A. C. Simmonett,
    A. E. DePrince III, E. G. Hohenstein, U. Bozkaya, A. Yu. Sokolov,
    R. Di Remigio, R. M. Richard, J. F. Gonthier, A. M. James,
    H. R. McAlexander, A. Kumar, M. Saitow, X. Wang, B. P. Pritchard,
    P. Verma, H. F. Schaefer III, K. Patkowski, R. A. King, E. F. Valeev,
    F. A. Evangelista, J. M. Turney, T. D. Crawford, and C. D. Sherrill,
    J. Chem. Theory Comput. 13(7) pp 3185--3197 (2017).
    (doi: 10.1021/acs.jctc.7b00174)


                         Additional Contributions by
    P. Kraus, H. Kruse, M. H. Lechner, M. C. Schieber, R. A. Shaw,
    A. Alenaizan, R. Galvelis, Z. L. Glick, S. Lehtola, and J. P. Misiewicz

    -----------------------------------------------------------------------


    Psi4 started on: Monday, 08 June 2020 02:55PM

    Process ID: 17779
    Host:       n076
    PSIDATADIR: /opt/psi/4/master/share/psi4
    Memory:     500.0 MiB
    Threads:    4
    
  ==> Input File <==

--------------------------------------------------------------------------
set memory 40Gb

molecule {
    C   -1.174143750690   -0.774963495581   -0.000122054786
    H   -1.616584782264   -1.210987980243   -0.891004174784
    H   -1.619302845217   -1.211171845066    0.890746084846
    C   -1.174269612652    0.774839281447    0.000076161665
    H   -1.619374120661    1.210892364359    0.890994279894
    H   -1.619381364782    1.211072780651   -0.890750050144
    C    0.352838650550    0.922272300361    0.000090756188
    H    0.838801173907    1.892357620401    0.000181753212
    O    0.767328509794    0.000129894668   -1.027364820395
    C    0.352901249697   -0.922231378284   -0.000074296023
    H    0.838935162470   -1.892280083507   -0.000165725875
    O    0.767317023967   -0.000060024664    1.027386765581
}

set {
    e_convergence 10
    d_convergence 10
    freeze_core True
    basis_guess True
    cc_type conv
    maxiter 300
}

E = energy('mp2/heavy-aug-cc-pV(Q+d)Z')
psi4.print_out("\n========================OPTAVC-XTPL==========================\n\n")
psi4.print_out("MP2/QZ correlation energy {}\n".format(variable("MP2 CORRELATION ENERGY")))
psi4.print_out("SCF/QZ reference energy {}\n".format(variable("CURRENT REFERENCE ENERGY")))
psi4.print_out("\n\n=============================================================\n")

E = energy('mp2/heavy-aug-cc-pV(T+d)Z')
psi4.print_out("\n========================OPTAVC-XTPL==========================\n\n")
psi4.print_out("MP2/TZ correlation energy {}".format(variable("MP2 CORRELATION ENERGY")))
psi4.print_out("\n\n=============================================================\n")
--------------------------------------------------------------------------

Scratch directory: /tmp/

Scratch directory: /tmp/
    SCF Algorithm Type (re)set to DF.

*** tstart() called on n076
*** at Mon Jun  8 14:55:20 2020


  //>>>>>>>>>>>>>>>>>>>>>>>>>>>>>>>>>>>//
  //      Guess SCF, pcseg-0 Basis     //
  //<<<<<<<<<<<<<<<<<<<<<<<<<<<<<<<<<<<//

   => Loading Basis Set <=

    Name: PCSEG-0
    Role: ORBITAL
    Keyword: BASIS
    atoms 1, 4, 7, 10     entry C          line    71 file /opt/psi/4/master/share/psi4/basis/pcseg-0.gbs 
    atoms 2-3, 5-6, 8, 11 entry H          line    13 file /opt/psi/4/master/share/psi4/basis/pcseg-0.gbs 
    atoms 9, 12           entry O          line   103 file /opt/psi/4/master/share/psi4/basis/pcseg-0.gbs 


         ---------------------------------------------------------
                           SCF Castup computation                  
         ---------------------------------------------------------
                                   SCF
               by Justin Turney, Rob Parrish, Andy Simmonett
                          and Daniel G. A. Smith
                              RHF Reference
                        4 Threads,    500 MiB Core
         ---------------------------------------------------------

  ==> Geometry <==

    Molecular point group: c1
    Full point group: C1

    Geometry (in Angstrom), charge = 0, multiplicity = 1:

       Center              X                  Y                   Z               Mass       
    ------------   -----------------  -----------------  -----------------  -----------------
         C           -1.174143750690    -0.774963495581    -0.000122054786    12.000000000000
         H           -1.616584782264    -1.210987980243    -0.891004174784     1.007825032230
         H           -1.619302845217    -1.211171845066     0.890746084846     1.007825032230
         C           -1.174269612652     0.774839281447     0.000076161665    12.000000000000
         H           -1.619374120661     1.210892364359     0.890994279894     1.007825032230
         H           -1.619381364782     1.211072780651    -0.890750050144     1.007825032230
         C            0.352838650550     0.922272300361     0.000090756188    12.000000000000
         H            0.838801173907     1.892357620401     0.000181753212     1.007825032230
         O            0.767328509794     0.000129894668    -1.027364820395    15.994914619570
         C            0.352901249697    -0.922231378284    -0.000074296023    12.000000000000
         H            0.838935162470    -1.892280083507    -0.000165725875     1.007825032230
         O            0.767317023967    -0.000060024664     1.027386765581    15.994914619570

  Running in c1 symmetry.

  Rotational constants: A =      0.19851  B =      0.16231  C =      0.14678 [cm^-1]
  Rotational constants: A =   5951.28343  B =   4865.99985  C =   4400.37649 [MHz]
  Nuclear repulsion =  257.017361512465868

  Charge       = 0
  Multiplicity = 1
  Electrons    = 46
  Nalpha       = 23
  Nbeta        = 23

  ==> Algorithm <==

  SCF Algorithm Type is DF.
  DIIS enabled.
  MOM disabled.
  Fractional occupation disabled.
  Guess Type is SAD.
  Energy threshold   = 1.00e-10
  Density threshold  = 1.00e-10
  Integral threshold = 0.00e+00

  ==> Primary Basis <==

  Basis Set: PCSEG-0
    Blend: PCSEG-0
    Number of shells: 42
    Number of basis function: 66
    Number of Cartesian functions: 66
    Spherical Harmonics?: true
    Max angular momentum: 1

   => Loading Basis Set <=

    Name: (PCSEG-0 AUX)
    Role: JKFIT
    Keyword: DF_BASIS_SCF
    atoms 1, 4, 7, 10     entry C          line   198 file /opt/psi/4/master/share/psi4/basis/def2-universal-jkfit.gbs 
    atoms 2-3, 5-6, 8, 11 entry H          line    18 file /opt/psi/4/master/share/psi4/basis/def2-universal-jkfit.gbs 
    atoms 9, 12           entry O          line   318 file /opt/psi/4/master/share/psi4/basis/def2-universal-jkfit.gbs 

  ==> Integral Setup <==

  ==> DiskDFJK: Density-Fitted J/K Matrices <==

    J tasked:                  Yes
    K tasked:                  Yes
    wK tasked:                  No
    OpenMP threads:              4
    Integrals threads:           4
    Memory [MiB]:              375
    Algorithm:                Core
    Integral Cache:           NONE
    Schwarz Cutoff:          1E-12
    Fitting Condition:       1E-10

   => Auxiliary Basis Set <=

  Basis Set: (PCSEG-0 AUX)
    Blend: DEF2-UNIVERSAL-JKFIT
    Number of shells: 186
    Number of basis function: 562
    Number of Cartesian functions: 662
    Spherical Harmonics?: true
    Max angular momentum: 4

  Minimum eigenvalue in the overlap matrix is 1.2849312035E-03.
  Reciprocal condition number of the overlap matrix is 2.1220814140E-04.
    Using symmetric orthogonalization.

  ==> Pre-Iterations <==

  SCF Guess: Superposition of Atomic Densities via on-the-fly atomic UHF (no occupation information).

   -------------------------
    Irrep   Nso     Nmo    
   -------------------------
     A         66      66 
   -------------------------
    Total      66      66
   -------------------------

  ==> Iterations <==

                           Total Energy        Delta E     RMS |[F,P]|

   @DF-RHF iter SAD:  -303.69666533194533   -3.03697e+02   0.00000e+00 
   @DF-RHF iter   1:  -303.56575920804050    1.30906e-01   7.24056e-03 DIIS
   @DF-RHF iter   2:  -303.66480723828693   -9.90480e-02   3.96892e-03 DIIS
   @DF-RHF iter   3:  -303.69042190579819   -2.56147e-02   6.19822e-04 DIIS
   @DF-RHF iter   4:  -303.69160689750919   -1.18499e-03   1.96427e-04 DIIS
   @DF-RHF iter   5:  -303.69170262844830   -9.57309e-05   4.10536e-05 DIIS
   @DF-RHF iter   6:  -303.69171021972016   -7.59127e-06   8.37735e-06 DIIS
   @DF-RHF iter   7:  -303.69171062249029   -4.02770e-07   1.68584e-06 DIIS
   @DF-RHF iter   8:  -303.69171063657666   -1.40864e-08   5.41630e-07 DIIS
   @DF-RHF iter   9:  -303.69171063799087   -1.41421e-09   1.09298e-07 DIIS
   @DF-RHF iter  10:  -303.69171063806743   -7.65681e-11   1.85673e-08 DIIS
   @DF-RHF iter  11:  -303.69171063806954   -2.10321e-12   2.80985e-09 DIIS
   @DF-RHF iter  12:  -303.69171063806931    2.27374e-13   8.42772e-10 DIIS
   @DF-RHF iter  13:  -303.69171063806948   -1.70530e-13   2.93690e-10 DIIS
   @DF-RHF iter  14:  -303.69171063806959   -1.13687e-13   5.70682e-11 DIIS
  Energy and wave function converged.


  ==> Post-Iterations <==

    Orbital Energies [Eh]
    ---------------------

    Doubly Occupied:                                                      

       1A    -20.584513     2A    -20.584438     3A    -11.369606  
       4A    -11.369573     5A    -11.256104     6A    -11.255689  
       7A     -1.537532     8A     -1.312951     9A     -1.091830  
      10A     -1.008964    11A     -0.821964    12A     -0.790146  
      13A     -0.768285    14A     -0.680648    15A     -0.663093  
      16A     -0.658512    17A     -0.552309    18A     -0.534490  
      19A     -0.527379    20A     -0.524458    21A     -0.519647  
      22A     -0.467012    23A     -0.443241  

    Virtual:                                                              

      24A      0.203100    25A      0.231278    26A      0.236090  
      27A      0.242184    28A      0.253132    29A      0.267393  
      30A      0.314424    31A      0.350231    32A      0.350972  
      33A      0.382098    34A      0.406848    35A      0.464643  
      36A      0.570241    37A      0.796461    38A      0.807909  
      39A      0.820863    40A      0.925766    41A      0.932885  
      42A      0.947104    43A      0.950040    44A      1.003270  
      45A      1.005133    46A      1.030059    47A      1.060582  
      48A      1.072103    49A      1.133988    50A      1.148952  
      51A      1.170463    52A      1.174254    53A      1.211045  
      54A      1.238072    55A      1.424936    56A      1.454983  
      57A      1.482482    58A      1.522017    59A      1.690923  
      60A      1.705488    61A      1.927951    62A      1.950924  
      63A      2.140057    64A      2.299078    65A      2.375017  
      66A      2.441178  

    Final Occupation by Irrep:
              A 
    DOCC [    23 ]

  @DF-RHF Final Energy:  -303.69171063806959

   => Energetics <=

    Nuclear Repulsion Energy =            257.0173615124658681
    One-Electron Energy =                -922.7733748539224052
    Two-Electron Energy =                 362.0643027033869430
    Total Energy =                       -303.6917106380695941

Computation Completed

  //>>>>>>>>>>>>>>>>>>>>>>>>>>>>>>>>>>>//
  //                SCF                //
  //<<<<<<<<<<<<<<<<<<<<<<<<<<<<<<<<<<<//

   => Loading Basis Set <=

    Name: HEAVY-AUG-CC-PV(Q+D)Z
    Role: ORBITAL
    Keyword: BASIS
    atoms 1, 4, 7, 10     entry C          line   333 file /opt/psi/4/master/share/psi4/basis/heavy-aug-cc-pv_qpd_z.gbs 
    atoms 2-3, 5-6, 8, 11 entry H          line    86 file /opt/psi/4/master/share/psi4/basis/heavy-aug-cc-pv_qpd_z.gbs 
    atoms 9, 12           entry O          line   453 file /opt/psi/4/master/share/psi4/basis/heavy-aug-cc-pv_qpd_z.gbs 


         ---------------------------------------------------------
                                   SCF
               by Justin Turney, Rob Parrish, Andy Simmonett
                          and Daniel G. A. Smith
                              RHF Reference
                        4 Threads,    500 MiB Core
         ---------------------------------------------------------

  ==> Geometry <==

    Molecular point group: c1
    Full point group: C1

    Geometry (in Angstrom), charge = 0, multiplicity = 1:

       Center              X                  Y                   Z               Mass       
    ------------   -----------------  -----------------  -----------------  -----------------
         C           -1.174143750690    -0.774963495581    -0.000122054786    12.000000000000
         H           -1.616584782264    -1.210987980243    -0.891004174784     1.007825032230
         H           -1.619302845217    -1.211171845066     0.890746084846     1.007825032230
         C           -1.174269612652     0.774839281447     0.000076161665    12.000000000000
         H           -1.619374120661     1.210892364359     0.890994279894     1.007825032230
         H           -1.619381364782     1.211072780651    -0.890750050144     1.007825032230
         C            0.352838650550     0.922272300361     0.000090756188    12.000000000000
         H            0.838801173907     1.892357620401     0.000181753212     1.007825032230
         O            0.767328509794     0.000129894668    -1.027364820395    15.994914619570
         C            0.352901249697    -0.922231378284    -0.000074296023    12.000000000000
         H            0.838935162470    -1.892280083507    -0.000165725875     1.007825032230
         O            0.767317023967    -0.000060024664     1.027386765581    15.994914619570

  Running in c1 symmetry.

  Rotational constants: A =      0.19851  B =      0.16231  C =      0.14678 [cm^-1]
  Rotational constants: A =   5951.28343  B =   4865.99985  C =   4400.37649 [MHz]
  Nuclear repulsion =  257.017361512465868

  Charge       = 0
  Multiplicity = 1
  Electrons    = 46
  Nalpha       = 23
  Nbeta        = 23

  ==> Algorithm <==

  SCF Algorithm Type is DF.
  DIIS enabled.
  MOM disabled.
  Fractional occupation disabled.
  Guess Type is SAD.
  Energy threshold   = 1.00e-10
  Density threshold  = 1.00e-10
  Integral threshold = 0.00e+00

  ==> Primary Basis <==

  Basis Set: HEAVY-AUG-CC-PV(Q+D)Z
    Blend: HEAVY-AUG-CC-PV(Q+D)Z
    Number of shells: 180
    Number of basis function: 660
    Number of Cartesian functions: 840
    Spherical Harmonics?: true
    Max angular momentum: 4

   => Loading Basis Set <=

    Name: (HEAVY-AUG-CC-PV(Q+D)Z AUX)
    Role: JKFIT
    Keyword: DF_BASIS_SCF
    atoms 1, 4, 7, 10     entry C          line   214 file /opt/psi/4/master/share/psi4/basis/heavy-aug-cc-pvqz-jkfit.gbs 
    atoms 2-3, 5-6, 8, 11 entry H          line   116 file /opt/psi/4/master/share/psi4/basis/heavy-aug-cc-pvqz-jkfit.gbs 
    atoms 9, 12           entry O          line   354 file /opt/psi/4/master/share/psi4/basis/heavy-aug-cc-pvqz-jkfit.gbs 


  Computing basis projection from PCSEG-0 to HEAVY-AUG-CC-PV(Q+D)Z

  ==> Integral Setup <==

  ==> DiskDFJK: Density-Fitted J/K Matrices <==

    J tasked:                  Yes
    K tasked:                  Yes
    wK tasked:                  No
    OpenMP threads:              4
    Integrals threads:           4
    Memory [MiB]:              375
    Algorithm:                Disk
    Integral Cache:           NONE
    Schwarz Cutoff:          1E-12
    Fitting Condition:       1E-10

   => Auxiliary Basis Set <=

  Basis Set: (HEAVY-AUG-CC-PV(Q+D)Z AUX)
    Blend: HEAVY-AUG-CC-PVQZ-JKFIT
    Number of shells: 282
    Number of basis function: 1158
    Number of Cartesian functions: 1584
    Spherical Harmonics?: true
    Max angular momentum: 5

  Minimum eigenvalue in the overlap matrix is 1.0916790063E-06.
  Reciprocal condition number of the overlap matrix is 6.9998744279E-08.
    Using symmetric orthogonalization.

  ==> Pre-Iterations <==

  SCF Guess: Orbitals guess was supplied from a previous computation.

   -------------------------
    Irrep   Nso     Nmo    
   -------------------------
     A        660     660 
   -------------------------
    Total     660     660
   -------------------------

  ==> Iterations <==

                           Total Energy        Delta E     RMS |[F,P]|

   @DF-RHF iter   0:  -304.22242183872550   -3.04222e+02   4.48097e-03 
   @DF-RHF iter   1:  -304.73372713670477   -5.11305e-01   3.36591e-04 DIIS
   @DF-RHF iter   2:  -304.74975790809646   -1.60308e-02   1.53671e-04 DIIS
   @DF-RHF iter   3:  -304.75363017850543   -3.87227e-03   2.81171e-05 DIIS
   @DF-RHF iter   4:  -304.75390715788274   -2.76979e-04   8.45557e-06 DIIS
   @DF-RHF iter   5:  -304.75392943914596   -2.22813e-05   3.57727e-06 DIIS
   @DF-RHF iter   6:  -304.75393324384720   -3.80470e-06   8.40571e-07 DIIS
   @DF-RHF iter   7:  -304.75393355257694   -3.08730e-07   1.79313e-07 DIIS
   @DF-RHF iter   8:  -304.75393356761992   -1.50430e-08   4.57120e-08 DIIS
   @DF-RHF iter   9:  -304.75393356870927   -1.08935e-09   1.48885e-08 DIIS
   @DF-RHF iter  10:  -304.75393356879670   -8.74252e-11   3.82250e-09 DIIS
   @DF-RHF iter  11:  -304.75393356880454   -7.84439e-12   9.81392e-10 DIIS
   @DF-RHF iter  12:  -304.75393356880602   -1.47793e-12   2.83869e-10 DIIS
   @DF-RHF iter  13:  -304.75393356880573    2.84217e-13   5.73671e-11 DIIS
  Energy and wave function converged.


  ==> Post-Iterations <==

    Orbital Energies [Eh]
    ---------------------

    Doubly Occupied:                                                      

       1A    -20.565168     2A    -20.565114     3A    -11.348527  
       4A    -11.348481     5A    -11.236563     6A    -11.235980  
       7A     -1.490806     8A     -1.292196     9A     -1.067456  
      10A     -0.987969    11A     -0.810346    12A     -0.789488  
      13A     -0.746601    14A     -0.672420    15A     -0.651319  
      16A     -0.646675    17A     -0.534299    18A     -0.524562  
      19A     -0.519521    20A     -0.512100    21A     -0.510270  
      22A     -0.459709    23A     -0.433683  

    Virtual:                                                              

      24A      0.041409    25A      0.042853    26A      0.050667  
      27A      0.062619    28A      0.063926    29A      0.079817  
      30A      0.080144    31A      0.083439    32A      0.101423  
      33A      0.110251    34A      0.111674    35A      0.112246  
      36A      0.139344    37A      0.151641    38A      0.166297  
      39A      0.171434    40A      0.178461    41A      0.178828  
      42A      0.188831    43A      0.188973    44A      0.199061  
      45A      0.207261    46A      0.226471    47A      0.227212  
      48A      0.229666    49A      0.257256    50A      0.260936  
      51A      0.270295    52A      0.270845    53A      0.271828  
      54A      0.286588    55A      0.288151    56A      0.291038  
      57A      0.301073    58A      0.316676    59A      0.320009  
      60A      0.325028    61A      0.333743    62A      0.337645  
      63A      0.355676    64A      0.358157    65A      0.369563  
      66A      0.380989    67A      0.388154    68A      0.389579  
      69A      0.391554    70A      0.391757    71A      0.395736  
      72A      0.398854    73A      0.412317    74A      0.420383  
      75A      0.420641    76A      0.440272    77A      0.453070  
      78A      0.456225    79A      0.462803    80A      0.495147  
      81A      0.515244    82A      0.518850    83A      0.522884  
      84A      0.528479    85A      0.550764    86A      0.571961  
      87A      0.574239    88A      0.585319    89A      0.589161  
      90A      0.598599    91A      0.600189    92A      0.613294  
      93A      0.629252    94A      0.641279    95A      0.653798  
      96A      0.659988    97A      0.684941    98A      0.688996  
      99A      0.695862   100A      0.704742   101A      0.716144  
     102A      0.716726   103A      0.732409   104A      0.743497  
     105A      0.757844   106A      0.764557   107A      0.790019  
     108A      0.790394   109A      0.794286   110A      0.795441  
     111A      0.827273   112A      0.832072   113A      0.833131  
     114A      0.849238   115A      0.860842   116A      0.875782  
     117A      0.884516   118A      0.897034   119A      0.920030  
     120A      0.938706   121A      0.947604   122A      0.957868  
     123A      0.961228   124A      0.988497   125A      1.002276  
     126A      1.010166   127A      1.011368   128A      1.016062  
     129A      1.034045   130A      1.035456   131A      1.046705  
     132A      1.062542   133A      1.070097   134A      1.075563  
     135A      1.096260   136A      1.114715   137A      1.128969  
     138A      1.140158   139A      1.155047   140A      1.159019  
     141A      1.160291   142A      1.166431   143A      1.168873  
     144A      1.175986   145A      1.191291   146A      1.198136  
     147A      1.208982   148A      1.221974   149A      1.229419  
     150A      1.234593   151A      1.238474   152A      1.239471  
     153A      1.244899   154A      1.276450   155A      1.276919  
     156A      1.287879   157A      1.288118   158A      1.306553  
     159A      1.314824   160A      1.327972   161A      1.370672  
     162A      1.371406   163A      1.408000   164A      1.408963  
     165A      1.437199   166A      1.442681   167A      1.458951  
     168A      1.469732   169A      1.474857   170A      1.485582  
     171A      1.491335   172A      1.508344   173A      1.525372  
     174A      1.534856   175A      1.543954   176A      1.593681  
     177A      1.594387   178A      1.618368   179A      1.620484  
     180A      1.625597   181A      1.626508   182A      1.647453  
     183A      1.682983   184A      1.687570   185A      1.699065  
     186A      1.723655   187A      1.728654   188A      1.731074  
     189A      1.757398   190A      1.775855   191A      1.776281  
     192A      1.815189   193A      1.865323   194A      1.870810  
     195A      1.886179   196A      1.901036   197A      1.911920  
     198A      1.923953   199A      1.960975   200A      1.968521  
     201A      1.996943   202A      1.997277   203A      2.018139  
     204A      2.026393   205A      2.026555   206A      2.028268  
     207A      2.032874   208A      2.039777   209A      2.044155  
     210A      2.106875   211A      2.116272   212A      2.125242  
     213A      2.142016   214A      2.143367   215A      2.174128  
     216A      2.187931   217A      2.188283   218A      2.209270  
     219A      2.249362   220A      2.258611   221A      2.265851  
     222A      2.293649   223A      2.293909   224A      2.306483  
     225A      2.335834   226A      2.341817   227A      2.359118  
     228A      2.363273   229A      2.366808   230A      2.373462  
     231A      2.389346   232A      2.395791   233A      2.403146  
     234A      2.418805   235A      2.441383   236A      2.442389  
     237A      2.462733   238A      2.485231   239A      2.492531  
     240A      2.517576   241A      2.526362   242A      2.533289  
     243A      2.548460   244A      2.559953   245A      2.584226  
     246A      2.587596   247A      2.621311   248A      2.626359  
     249A      2.633887   250A      2.645279   251A      2.660577  
     252A      2.682569   253A      2.705848   254A      2.714286  
     255A      2.729189   256A      2.730862   257A      2.751362  
     258A      2.763525   259A      2.763854   260A      2.801544  
     261A      2.803473   262A      2.812200   263A      2.831965  
     264A      2.858457   265A      2.866701   266A      2.919093  
     267A      2.935304   268A      2.941076   269A      2.966783  
     270A      2.974748   271A      2.987082   272A      2.987190  
     273A      3.009252   274A      3.031533   275A      3.041166  
     276A      3.048759   277A      3.074787   278A      3.076753  
     279A      3.084130   280A      3.104392   281A      3.109854  
     282A      3.136689   283A      3.142956   284A      3.153504  
     285A      3.169811   286A      3.187551   287A      3.222985  
     288A      3.247999   289A      3.259807   290A      3.268003  
     291A      3.288131   292A      3.292783   293A      3.320360  
     294A      3.363007   295A      3.367082   296A      3.394838  
     297A      3.398342   298A      3.402846   299A      3.431479  
     300A      3.452993   301A      3.464622   302A      3.474583  
     303A      3.501892   304A      3.524113   305A      3.535799  
     306A      3.549659   307A      3.572201   308A      3.598386  
     309A      3.610022   310A      3.618706   311A      3.635993  
     312A      3.661464   313A      3.690955   314A      3.706535  
     315A      3.716944   316A      3.747036   317A      3.752951  
     318A      3.757226   319A      3.805570   320A      3.834595  
     321A      3.843412   322A      3.843936   323A      3.872394  
     324A      3.908323   325A      3.909238   326A      3.917385  
     327A      3.950486   328A      3.963185   329A      3.982096  
     330A      4.040086   331A      4.041737   332A      4.048245  
     333A      4.061108   334A      4.084996   335A      4.099175  
     336A      4.120208   337A      4.134653   338A      4.157354  
     339A      4.173545   340A      4.203080   341A      4.206136  
     342A      4.217916   343A      4.238208   344A      4.244625  
     345A      4.273256   346A      4.292809   347A      4.317764  
     348A      4.331566   349A      4.336559   350A      4.357497  
     351A      4.406375   352A      4.426874   353A      4.439725  
     354A      4.451947   355A      4.459487   356A      4.489588  
     357A      4.497645   358A      4.511913   359A      4.517119  
     360A      4.541167   361A      4.569064   362A      4.594172  
     363A      4.627541   364A      4.652707   365A      4.669744  
     366A      4.692281   367A      4.696828   368A      4.698501  
     369A      4.718632   370A      4.736744   371A      4.749887  
     372A      4.761518   373A      4.787719   374A      4.823758  
     375A      4.824069   376A      4.826539   377A      4.844232  
     378A      4.846247   379A      4.901085   380A      4.942496  
     381A      4.976708   382A      5.000297   383A      5.000884  
     384A      5.021311   385A      5.059144   386A      5.122404  
     387A      5.155352   388A      5.164044   389A      5.183083  
     390A      5.237183   391A      5.244787   392A      5.253099  
     393A      5.277192   394A      5.289161   395A      5.305042  
     396A      5.342118   397A      5.357996   398A      5.374659  
     399A      5.407394   400A      5.488784   401A      5.512686  
     402A      5.555369   403A      5.582586   404A      5.627015  
     405A      5.647075   406A      5.649189   407A      5.669302  
     408A      5.782220   409A      5.822000   410A      5.828746  
     411A      5.837575   412A      5.898017   413A      5.973521  
     414A      6.030991   415A      6.102770   416A      6.137682  
     417A      6.193183   418A      6.214287   419A      6.227813  
     420A      6.236448   421A      6.293250   422A      6.335606  
     423A      6.338354   424A      6.345880   425A      6.366696  
     426A      6.398265   427A      6.417439   428A      6.459407  
     429A      6.491037   430A      6.495624   431A      6.511285  
     432A      6.520268   433A      6.530904   434A      6.577192  
     435A      6.586569   436A      6.612153   437A      6.638732  
     438A      6.643855   439A      6.656970   440A      6.680058  
     441A      6.700043   442A      6.700649   443A      6.717469  
     444A      6.748506   445A      6.765797   446A      6.782320  
     447A      6.814766   448A      6.820623   449A      6.855263  
     450A      6.885469   451A      6.913154   452A      6.914830  
     453A      6.921794   454A      6.925903   455A      6.938003  
     456A      6.976888   457A      6.988370   458A      7.010582  
     459A      7.039565   460A      7.093007   461A      7.101270  
     462A      7.104527   463A      7.134222   464A      7.153061  
     465A      7.179071   466A      7.194667   467A      7.196754  
     468A      7.219095   469A      7.222902   470A      7.249112  
     471A      7.276384   472A      7.304629   473A      7.352892  
     474A      7.359640   475A      7.366657   476A      7.418372  
     477A      7.429833   478A      7.437418   479A      7.469219  
     480A      7.528520   481A      7.541444   482A      7.584096  
     483A      7.601075   484A      7.604991   485A      7.635737  
     486A      7.707925   487A      7.731231   488A      7.741385  
     489A      7.751218   490A      7.782792   491A      7.802316  
     492A      7.833274   493A      7.841501   494A      7.843794  
     495A      7.917732   496A      7.936716   497A      7.943369  
     498A      7.986978   499A      7.996524   500A      8.014001  
     501A      8.015489   502A      8.042366   503A      8.084755  
     504A      8.105072   505A      8.146368   506A      8.155029  
     507A      8.190955   508A      8.193232   509A      8.322696  
     510A      8.326406   511A      8.335177   512A      8.351640  
     513A      8.378459   514A      8.408276   515A      8.413516  
     516A      8.478224   517A      8.496076   518A      8.497601  
     519A      8.532109   520A      8.552184   521A      8.557696  
     522A      8.586291   523A      8.609798   524A      8.611277  
     525A      8.649654   526A      8.686514   527A      8.707238  
     528A      8.716106   529A      8.763130   530A      8.813953  
     531A      8.825812   532A      8.837765   533A      8.841046  
     534A      8.841906   535A      8.880444   536A      8.900732  
     537A      8.903858   538A      8.936408   539A      8.957294  
     540A      8.993661   541A      9.016170   542A      9.027759  
     543A      9.033746   544A      9.048703   545A      9.055752  
     546A      9.085831   547A      9.109762   548A      9.117481  
     549A      9.171975   550A      9.177016   551A      9.189345  
     552A      9.234235   553A      9.248569   554A      9.315374  
     555A      9.343589   556A      9.351293   557A      9.351410  
     558A      9.366483   559A      9.401613   560A      9.453393  
     561A      9.498094   562A      9.513526   563A      9.525998  
     564A      9.557709   565A      9.649019   566A      9.659257  
     567A      9.728158   568A      9.755567   569A      9.768975  
     570A      9.790389   571A      9.834982   572A      9.900179  
     573A      9.919772   574A      9.930827   575A      9.960079  
     576A     10.068167   577A     10.117569   578A     10.233998  
     579A     10.242559   580A     10.256242   581A     10.294940  
     582A     10.417711   583A     10.478449   584A     10.507419  
     585A     10.509552   586A     10.593326   587A     10.629254  
     588A     10.643051   589A     10.780484   590A     10.795389  
     591A     10.824826   592A     10.827255   593A     10.973077  
     594A     11.001697   595A     11.064350   596A     11.071809  
     597A     11.101693   598A     11.105977   599A     11.130890  
     600A     11.153686   601A     11.162336   602A     11.209847  
     603A     11.225770   604A     11.252037   605A     11.334327  
     606A     11.383587   607A     11.452292   608A     11.455587  
     609A     11.494495   610A     11.498855   611A     11.508288  
     612A     11.542506   613A     11.619536   614A     11.645087  
     615A     11.721985   616A     11.813772   617A     11.820018  
     618A     11.847544   619A     11.885822   620A     11.907921  
     621A     12.198759   622A     12.253632   623A     12.316674  
     624A     12.378462   625A     12.640977   626A     12.651323  
     627A     12.825340   628A     12.870089   629A     12.964625  
     630A     13.028400   631A     13.075754   632A     13.075989  
     633A     13.183887   634A     13.241047   635A     13.257222  
     636A     13.354336   637A     13.357621   638A     13.386232  
     639A     13.422697   640A     13.512411   641A     13.523458  
     642A     13.532801   643A     13.717741   644A     13.737443  
     645A     13.789172   646A     13.813512   647A     13.846744  
     648A     13.908395   649A     13.968826   650A     13.979438  
     651A     14.123385   652A     14.155140   653A     14.690295  
     654A     14.883933   655A     27.255426   656A     27.849464  
     657A     28.046375   658A     28.614877   659A     44.796795  
     660A     45.695795  

    Final Occupation by Irrep:
              A 
    DOCC [    23 ]

  @DF-RHF Final Energy:  -304.75393356880573

   => Energetics <=

    Nuclear Repulsion Energy =            257.0173615124658681
    One-Electron Energy =                -925.6440844748181007
    Two-Electron Energy =                 363.8727893935464976
    Total Energy =                       -304.7539335688057349

Computation Completed


Properties will be evaluated at   0.000000,   0.000000,   0.000000 [a0]

Properties computed using the SCF density matrix

  Nuclear Dipole Moment: [e a0]
     X:    -4.4896      Y:    -0.0001      Z:     0.0000

  Electronic Dipole Moment: [e a0]
     X:     3.7178      Y:    -0.0002      Z:    -0.0003

  Dipole Moment: [e a0]
     X:    -0.7718      Y:    -0.0003      Z:    -0.0003     Total:     0.7718

  Dipole Moment: [D]
     X:    -1.9618      Y:    -0.0007      Z:    -0.0007     Total:     1.9618


*** tstop() called on n076 at Mon Jun  8 14:55:59 2020
Module time:
	user time   =     145.02 seconds =       2.42 minutes
	system time =       5.61 seconds =       0.09 minutes
	total time  =         39 seconds =       0.65 minutes
Total time:
	user time   =     145.02 seconds =       2.42 minutes
	system time =       5.61 seconds =       0.09 minutes
	total time  =         39 seconds =       0.65 minutes

*** tstart() called on n076
*** at Mon Jun  8 14:55:59 2020


  //>>>>>>>>>>>>>>>>>>>>>>>>>>>>>>>>>>>//
  //               DFMP2               //
  //<<<<<<<<<<<<<<<<<<<<<<<<<<<<<<<<<<<//

   => Loading Basis Set <=

    Name: (HEAVY-AUG-CC-PV(Q+D)Z AUX)
    Role: RIFIT
    Keyword: DF_BASIS_MP2
    atoms 1, 4, 7, 10     entry C          line   180 file /opt/psi/4/master/share/psi4/basis/heavy-aug-cc-pvqz-ri.gbs 
    atoms 2-3, 5-6, 8, 11 entry H          line    44 file /opt/psi/4/master/share/psi4/basis/heavy-aug-cc-pvqz-ri.gbs 
    atoms 9, 12           entry O          line   328 file /opt/psi/4/master/share/psi4/basis/heavy-aug-cc-pvqz-ri.gbs 

	 --------------------------------------------------------
	                          DF-MP2                         
	      2nd-Order Density-Fitted Moller-Plesset Theory     
	              RMP2 Wavefunction,   4 Threads             
	                                                         
	        Rob Parrish, Justin Turney, Andy Simmonett,      
	           Ed Hohenstein, and C. David Sherrill          
	 --------------------------------------------------------

   => Auxiliary Basis Set <=

  Basis Set: (HEAVY-AUG-CC-PV(Q+D)Z AUX)
    Blend: HEAVY-AUG-CC-PVQZ-RI
    Number of shells: 306
    Number of basis function: 1338
    Number of Cartesian functions: 1842
    Spherical Harmonics?: true
    Max angular momentum: 5

	 --------------------------------------------------------
	                 NBF =   660, NAUX =  1338
	 --------------------------------------------------------
	   CLASS    FOCC     OCC    AOCC    AVIR     VIR    FVIR
	   PAIRS       6      23      17     637     637       0
	 --------------------------------------------------------

	-----------------------------------------------------------
	 ==================> DF-MP2 Energies <==================== 
	-----------------------------------------------------------
	 Reference Energy          =    -304.7539335688057349 [Eh]
	 Singles Energy            =      -0.0000000000000000 [Eh]
	 Same-Spin Energy          =      -0.2941267172513912 [Eh]
	 Opposite-Spin Energy      =      -0.9238366281979704 [Eh]
	 Correlation Energy        =      -1.2179633454493617 [Eh]
	 Total Energy              =    -305.9718969142550691 [Eh]
	-----------------------------------------------------------
	 ================> DF-SCS-MP2 Energies <================== 
	-----------------------------------------------------------
	 SCS Same-Spin Scale       =       0.3333333333333333 [-]
	 SCS Opposite-Spin Scale   =       1.2000000000000000 [-]
	 SCS Same-Spin Energy      =      -0.0980422390837971 [Eh]
	 SCS Opposite-Spin Energy  =      -1.1086039538375645 [Eh]
	 SCS Correlation Energy    =      -1.2066461929213617 [Eh]
	 SCS Total Energy          =    -305.9605797617271037 [Eh]
	-----------------------------------------------------------


*** tstop() called on n076 at Mon Jun  8 14:56:05 2020
Module time:
	user time   =      23.78 seconds =       0.40 minutes
	system time =       0.22 seconds =       0.00 minutes
	total time  =          6 seconds =       0.10 minutes
Total time:
	user time   =     168.80 seconds =       2.81 minutes
	system time =       5.83 seconds =       0.10 minutes
	total time  =         45 seconds =       0.75 minutes

========================OPTAVC-XTPL==========================

MP2/QZ correlation energy -1.2179633454493617
SCF/QZ reference energy -304.75393356880573


=============================================================

Scratch directory: /tmp/

Scratch directory: /tmp/
    SCF Algorithm Type (re)set to DF.

*** tstart() called on n076
*** at Mon Jun  8 14:56:06 2020


  //>>>>>>>>>>>>>>>>>>>>>>>>>>>>>>>>>>>//
  //      Guess SCF, pcseg-0 Basis     //
  //<<<<<<<<<<<<<<<<<<<<<<<<<<<<<<<<<<<//

   => Loading Basis Set <=

    Name: PCSEG-0
    Role: ORBITAL
    Keyword: BASIS
    atoms 1, 4, 7, 10     entry C          line    71 file /opt/psi/4/master/share/psi4/basis/pcseg-0.gbs 
    atoms 2-3, 5-6, 8, 11 entry H          line    13 file /opt/psi/4/master/share/psi4/basis/pcseg-0.gbs 
    atoms 9, 12           entry O          line   103 file /opt/psi/4/master/share/psi4/basis/pcseg-0.gbs 


         ---------------------------------------------------------
                           SCF Castup computation                  
         ---------------------------------------------------------
                                   SCF
               by Justin Turney, Rob Parrish, Andy Simmonett
                          and Daniel G. A. Smith
                              RHF Reference
                        4 Threads,    500 MiB Core
         ---------------------------------------------------------

  ==> Geometry <==

    Molecular point group: c1
    Full point group: C1

    Geometry (in Angstrom), charge = 0, multiplicity = 1:

       Center              X                  Y                   Z               Mass       
    ------------   -----------------  -----------------  -----------------  -----------------
         C           -1.174143750690    -0.774963495581    -0.000122054786    12.000000000000
         H           -1.616584782264    -1.210987980243    -0.891004174784     1.007825032230
         H           -1.619302845217    -1.211171845066     0.890746084846     1.007825032230
         C           -1.174269612652     0.774839281447     0.000076161665    12.000000000000
         H           -1.619374120661     1.210892364359     0.890994279894     1.007825032230
         H           -1.619381364782     1.211072780651    -0.890750050144     1.007825032230
         C            0.352838650550     0.922272300361     0.000090756188    12.000000000000
         H            0.838801173907     1.892357620401     0.000181753212     1.007825032230
         O            0.767328509794     0.000129894668    -1.027364820395    15.994914619570
         C            0.352901249697    -0.922231378284    -0.000074296023    12.000000000000
         H            0.838935162470    -1.892280083507    -0.000165725875     1.007825032230
         O            0.767317023967    -0.000060024664     1.027386765581    15.994914619570

  Running in c1 symmetry.

  Rotational constants: A =      0.19851  B =      0.16231  C =      0.14678 [cm^-1]
  Rotational constants: A =   5951.28343  B =   4865.99985  C =   4400.37649 [MHz]
  Nuclear repulsion =  257.017361512465868

  Charge       = 0
  Multiplicity = 1
  Electrons    = 46
  Nalpha       = 23
  Nbeta        = 23

  ==> Algorithm <==

  SCF Algorithm Type is DF.
  DIIS enabled.
  MOM disabled.
  Fractional occupation disabled.
  Guess Type is SAD.
  Energy threshold   = 1.00e-10
  Density threshold  = 1.00e-10
  Integral threshold = 0.00e+00

  ==> Primary Basis <==

  Basis Set: PCSEG-0
    Blend: PCSEG-0
    Number of shells: 42
    Number of basis function: 66
    Number of Cartesian functions: 66
    Spherical Harmonics?: true
    Max angular momentum: 1

   => Loading Basis Set <=

    Name: (PCSEG-0 AUX)
    Role: JKFIT
    Keyword: DF_BASIS_SCF
    atoms 1, 4, 7, 10     entry C          line   198 file /opt/psi/4/master/share/psi4/basis/def2-universal-jkfit.gbs 
    atoms 2-3, 5-6, 8, 11 entry H          line    18 file /opt/psi/4/master/share/psi4/basis/def2-universal-jkfit.gbs 
    atoms 9, 12           entry O          line   318 file /opt/psi/4/master/share/psi4/basis/def2-universal-jkfit.gbs 

  ==> Integral Setup <==

  ==> DiskDFJK: Density-Fitted J/K Matrices <==

    J tasked:                  Yes
    K tasked:                  Yes
    wK tasked:                  No
    OpenMP threads:              4
    Integrals threads:           4
    Memory [MiB]:              375
    Algorithm:                Core
    Integral Cache:           NONE
    Schwarz Cutoff:          1E-12
    Fitting Condition:       1E-10

   => Auxiliary Basis Set <=

  Basis Set: (PCSEG-0 AUX)
    Blend: DEF2-UNIVERSAL-JKFIT
    Number of shells: 186
    Number of basis function: 562
    Number of Cartesian functions: 662
    Spherical Harmonics?: true
    Max angular momentum: 4

  Minimum eigenvalue in the overlap matrix is 1.2849312035E-03.
  Reciprocal condition number of the overlap matrix is 2.1220814140E-04.
    Using symmetric orthogonalization.

  ==> Pre-Iterations <==

  SCF Guess: Superposition of Atomic Densities via on-the-fly atomic UHF (no occupation information).

   -------------------------
    Irrep   Nso     Nmo    
   -------------------------
     A         66      66 
   -------------------------
    Total      66      66
   -------------------------

  ==> Iterations <==

                           Total Energy        Delta E     RMS |[F,P]|

   @DF-RHF iter SAD:  -303.69666533215036   -3.03697e+02   0.00000e+00 
   @DF-RHF iter   1:  -303.56575920824372    1.30906e-01   7.24056e-03 DIIS
   @DF-RHF iter   2:  -303.66480723848770   -9.90480e-02   3.96892e-03 DIIS
   @DF-RHF iter   3:  -303.69042190599873   -2.56147e-02   6.19822e-04 DIIS
   @DF-RHF iter   4:  -303.69160689770922   -1.18499e-03   1.96427e-04 DIIS
   @DF-RHF iter   5:  -303.69170262864867   -9.57309e-05   4.10536e-05 DIIS
   @DF-RHF iter   6:  -303.69171021992059   -7.59127e-06   8.37735e-06 DIIS
   @DF-RHF iter   7:  -303.69171062269072   -4.02770e-07   1.68584e-06 DIIS
   @DF-RHF iter   8:  -303.69171063677680   -1.40861e-08   5.41630e-07 DIIS
   @DF-RHF iter   9:  -303.69171063819130   -1.41449e-09   1.09298e-07 DIIS
   @DF-RHF iter  10:  -303.69171063826815   -7.68523e-11   1.85673e-08 DIIS
   @DF-RHF iter  11:  -303.69171063827008   -1.93268e-12   2.80985e-09 DIIS
   @DF-RHF iter  12:  -303.69171063827002    5.68434e-14   8.42772e-10 DIIS
   @DF-RHF iter  13:  -303.69171063826991    1.13687e-13   2.93689e-10 DIIS
   @DF-RHF iter  14:  -303.69171063826968    2.27374e-13   5.70687e-11 DIIS
  Energy and wave function converged.


  ==> Post-Iterations <==

    Orbital Energies [Eh]
    ---------------------

    Doubly Occupied:                                                      

       1A    -20.584513     2A    -20.584438     3A    -11.369606  
       4A    -11.369573     5A    -11.256104     6A    -11.255689  
       7A     -1.537532     8A     -1.312951     9A     -1.091830  
      10A     -1.008964    11A     -0.821964    12A     -0.790146  
      13A     -0.768285    14A     -0.680648    15A     -0.663093  
      16A     -0.658512    17A     -0.552309    18A     -0.534490  
      19A     -0.527379    20A     -0.524458    21A     -0.519647  
      22A     -0.467012    23A     -0.443241  

    Virtual:                                                              

      24A      0.203100    25A      0.231278    26A      0.236090  
      27A      0.242184    28A      0.253132    29A      0.267393  
      30A      0.314424    31A      0.350231    32A      0.350972  
      33A      0.382098    34A      0.406848    35A      0.464643  
      36A      0.570241    37A      0.796461    38A      0.807909  
      39A      0.820863    40A      0.925766    41A      0.932885  
      42A      0.947104    43A      0.950040    44A      1.003270  
      45A      1.005133    46A      1.030059    47A      1.060582  
      48A      1.072103    49A      1.133988    50A      1.148952  
      51A      1.170463    52A      1.174254    53A      1.211045  
      54A      1.238072    55A      1.424936    56A      1.454983  
      57A      1.482482    58A      1.522017    59A      1.690923  
      60A      1.705488    61A      1.927951    62A      1.950924  
      63A      2.140057    64A      2.299078    65A      2.375017  
      66A      2.441178  

    Final Occupation by Irrep:
              A 
    DOCC [    23 ]

  @DF-RHF Final Energy:  -303.69171063826968

   => Energetics <=

    Nuclear Repulsion Energy =            257.0173615124658681
    One-Electron Energy =                -922.7733748539303633
    Two-Electron Energy =                 362.0643027031948122
    Total Energy =                       -303.6917106382696829

Computation Completed

  //>>>>>>>>>>>>>>>>>>>>>>>>>>>>>>>>>>>//
  //                SCF                //
  //<<<<<<<<<<<<<<<<<<<<<<<<<<<<<<<<<<<//

   => Loading Basis Set <=

    Name: HEAVY-AUG-CC-PV(T+D)Z
    Role: ORBITAL
    Keyword: BASIS
    atoms 1, 4, 7, 10     entry C          line   273 file /opt/psi/4/master/share/psi4/basis/heavy-aug-cc-pv_tpd_z.gbs 
    atoms 2-3, 5-6, 8, 11 entry H          line    86 file /opt/psi/4/master/share/psi4/basis/heavy-aug-cc-pv_tpd_z.gbs 
    atoms 9, 12           entry O          line   365 file /opt/psi/4/master/share/psi4/basis/heavy-aug-cc-pv_tpd_z.gbs 


         ---------------------------------------------------------
                                   SCF
               by Justin Turney, Rob Parrish, Andy Simmonett
                          and Daniel G. A. Smith
                              RHF Reference
                        4 Threads,    500 MiB Core
         ---------------------------------------------------------

  ==> Geometry <==

    Molecular point group: c1
    Full point group: C1

    Geometry (in Angstrom), charge = 0, multiplicity = 1:

       Center              X                  Y                   Z               Mass       
    ------------   -----------------  -----------------  -----------------  -----------------
         C           -1.174143750690    -0.774963495581    -0.000122054786    12.000000000000
         H           -1.616584782264    -1.210987980243    -0.891004174784     1.007825032230
         H           -1.619302845217    -1.211171845066     0.890746084846     1.007825032230
         C           -1.174269612652     0.774839281447     0.000076161665    12.000000000000
         H           -1.619374120661     1.210892364359     0.890994279894     1.007825032230
         H           -1.619381364782     1.211072780651    -0.890750050144     1.007825032230
         C            0.352838650550     0.922272300361     0.000090756188    12.000000000000
         H            0.838801173907     1.892357620401     0.000181753212     1.007825032230
         O            0.767328509794     0.000129894668    -1.027364820395    15.994914619570
         C            0.352901249697    -0.922231378284    -0.000074296023    12.000000000000
         H            0.838935162470    -1.892280083507    -0.000165725875     1.007825032230
         O            0.767317023967    -0.000060024664     1.027386765581    15.994914619570

  Running in c1 symmetry.

  Rotational constants: A =      0.19851  B =      0.16231  C =      0.14678 [cm^-1]
  Rotational constants: A =   5951.28343  B =   4865.99985  C =   4400.37649 [MHz]
  Nuclear repulsion =  257.017361512465868

  Charge       = 0
  Multiplicity = 1
  Electrons    = 46
  Nalpha       = 23
  Nbeta        = 23

  ==> Algorithm <==

  SCF Algorithm Type is DF.
  DIIS enabled.
  MOM disabled.
  Fractional occupation disabled.
  Guess Type is SAD.
  Energy threshold   = 1.00e-10
  Density threshold  = 1.00e-10
  Integral threshold = 0.00e+00

  ==> Primary Basis <==

  Basis Set: HEAVY-AUG-CC-PV(T+D)Z
    Blend: HEAVY-AUG-CC-PV(T+D)Z
    Number of shells: 120
    Number of basis function: 360
    Number of Cartesian functions: 420
    Spherical Harmonics?: true
    Max angular momentum: 3

   => Loading Basis Set <=

    Name: (HEAVY-AUG-CC-PV(T+D)Z AUX)
    Role: JKFIT
    Keyword: DF_BASIS_SCF
    atoms 1, 4, 7, 10     entry C          line   200 file /opt/psi/4/master/share/psi4/basis/heavy-aug-cc-pvtz-jkfit.gbs 
    atoms 2-3, 5-6, 8, 11 entry H          line   116 file /opt/psi/4/master/share/psi4/basis/heavy-aug-cc-pvtz-jkfit.gbs 
    atoms 9, 12           entry O          line   324 file /opt/psi/4/master/share/psi4/basis/heavy-aug-cc-pvtz-jkfit.gbs 


  Computing basis projection from PCSEG-0 to HEAVY-AUG-CC-PV(T+D)Z

  ==> Integral Setup <==

  ==> DiskDFJK: Density-Fitted J/K Matrices <==

    J tasked:                  Yes
    K tasked:                  Yes
    wK tasked:                  No
    OpenMP threads:              4
    Integrals threads:           4
    Memory [MiB]:              375
    Algorithm:                Disk
    Integral Cache:           NONE
    Schwarz Cutoff:          1E-12
    Fitting Condition:       1E-10

   => Auxiliary Basis Set <=

  Basis Set: (HEAVY-AUG-CC-PV(T+D)Z AUX)
    Blend: HEAVY-AUG-CC-PVTZ-JKFIT
    Number of shells: 240
    Number of basis function: 804
    Number of Cartesian functions: 996
    Spherical Harmonics?: true
    Max angular momentum: 4

  Minimum eigenvalue in the overlap matrix is 5.5200286517E-06.
  Reciprocal condition number of the overlap matrix is 4.0352430692E-07.
    Using symmetric orthogonalization.

  ==> Pre-Iterations <==

  SCF Guess: Orbitals guess was supplied from a previous computation.

   -------------------------
    Irrep   Nso     Nmo    
   -------------------------
     A        360     360 
   -------------------------
    Total     360     360
   -------------------------

  ==> Iterations <==

                           Total Energy        Delta E     RMS |[F,P]|

   @DF-RHF iter   0:  -304.36281551245008   -3.04363e+02   4.15936e-03 
   @DF-RHF iter   1:  -304.71637899821968   -3.53563e-01   5.72507e-04 DIIS
   @DF-RHF iter   2:  -304.73154055725649   -1.51616e-02   2.71802e-04 DIIS
   @DF-RHF iter   3:  -304.73523307366099   -3.69252e-03   4.87265e-05 DIIS
   @DF-RHF iter   4:  -304.73549694312686   -2.63869e-04   1.57893e-05 DIIS
   @DF-RHF iter   5:  -304.73551798970618   -2.10466e-05   6.25255e-06 DIIS
   @DF-RHF iter   6:  -304.73552188719896   -3.89749e-06   1.42008e-06 DIIS
   @DF-RHF iter   7:  -304.73552215266903   -2.65470e-07   3.12552e-07 DIIS
   @DF-RHF iter   8:  -304.73552216688586   -1.42168e-08   7.97011e-08 DIIS
   @DF-RHF iter   9:  -304.73552216781934   -9.33483e-10   2.59128e-08 DIIS
   @DF-RHF iter  10:  -304.73552216790392   -8.45830e-11   6.47299e-09 DIIS
   @DF-RHF iter  11:  -304.73552216790989   -5.96856e-12   1.69275e-09 DIIS
   @DF-RHF iter  12:  -304.73552216791052   -6.25278e-13   4.81966e-10 DIIS
   @DF-RHF iter  13:  -304.73552216791097   -4.54747e-13   9.64763e-11 DIIS
  Energy and wave function converged.


  ==> Post-Iterations <==

    Orbital Energies [Eh]
    ---------------------

    Doubly Occupied:                                                      

       1A    -20.568114     2A    -20.568061     3A    -11.349629  
       4A    -11.349584     5A    -11.237646     6A    -11.237065  
       7A     -1.491613     8A     -1.292993     9A     -1.067706  
      10A     -0.988251    11A     -0.810441    12A     -0.789647  
      13A     -0.746558    14A     -0.672321    15A     -0.651339  
      16A     -0.646527    17A     -0.534223    18A     -0.524406  
      19A     -0.519389    20A     -0.512025    21A     -0.510071  
      22A     -0.459444    23A     -0.433482  

    Virtual:                                                              

      24A      0.050338    25A      0.050959    26A      0.059704  
      27A      0.072058    28A      0.073411    29A      0.092441  
      30A      0.093545    31A      0.096706    32A      0.116612  
      33A      0.126307    34A      0.127404    35A      0.130071  
      36A      0.162103    37A      0.176058    38A      0.195281  
      39A      0.204137    40A      0.206508    41A      0.214125  
      42A      0.220420    43A      0.228361    44A      0.233853  
      45A      0.249376    46A      0.268506    47A      0.268601  
      48A      0.277120    49A      0.295384    50A      0.300755  
      51A      0.312950    52A      0.331229    53A      0.335307  
      54A      0.341766    55A      0.347763    56A      0.356257  
      57A      0.356946    58A      0.362607    59A      0.374769  
      60A      0.397682    61A      0.404453    62A      0.412739  
      63A      0.421307    64A      0.432405    65A      0.446459  
      66A      0.457842    67A      0.465045    68A      0.485320  
      69A      0.492997    70A      0.503877    71A      0.510830  
      72A      0.516681    73A      0.519777    74A      0.527007  
      75A      0.528735    76A      0.543681    77A      0.545923  
      78A      0.580872    79A      0.591990    80A      0.608313  
      81A      0.613221    82A      0.620781    83A      0.653776  
      84A      0.658704    85A      0.673207    86A      0.722134  
      87A      0.735849    88A      0.747581    89A      0.753852  
      90A      0.770257    91A      0.780956    92A      0.791231  
      93A      0.797164    94A      0.815645    95A      0.818634  
      96A      0.828003    97A      0.843997    98A      0.877731  
      99A      0.891353   100A      0.926940   101A      0.928770  
     102A      0.938776   103A      0.946060   104A      0.970375  
     105A      0.985597   106A      0.998648   107A      1.032150  
     108A      1.037147   109A      1.038511   110A      1.060409  
     111A      1.082292   112A      1.096489   113A      1.114219  
     114A      1.120813   115A      1.138264   116A      1.160781  
     117A      1.185518   118A      1.222861   119A      1.247361  
     120A      1.251819   121A      1.261106   122A      1.283387  
     123A      1.321637   124A      1.329847   125A      1.335780  
     126A      1.352901   127A      1.373430   128A      1.383830  
     129A      1.398682   130A      1.403686   131A      1.415196  
     132A      1.446516   133A      1.447801   134A      1.457981  
     135A      1.483440   136A      1.499220   137A      1.505822  
     138A      1.528639   139A      1.546571   140A      1.560210  
     141A      1.581644   142A      1.586283   143A      1.586868  
     144A      1.589179   145A      1.599958   146A      1.654285  
     147A      1.656780   148A      1.670290   149A      1.677291  
     150A      1.684006   151A      1.698738   152A      1.707827  
     153A      1.715497   154A      1.731862   155A      1.735725  
     156A      1.750377   157A      1.752048   158A      1.791954  
     159A      1.799781   160A      1.806821   161A      1.822997  
     162A      1.901929   163A      1.902276   164A      1.930535  
     165A      1.939402   166A      1.949874   167A      1.984772  
     168A      1.990523   169A      2.003330   170A      2.007894  
     171A      2.026794   172A      2.046691   173A      2.055148  
     174A      2.058945   175A      2.150363   176A      2.151597  
     177A      2.209203   178A      2.252412   179A      2.300726  
     180A      2.333557   181A      2.392449   182A      2.401696  
     183A      2.419805   184A      2.443756   185A      2.450920  
     186A      2.472333   187A      2.504201   188A      2.508355  
     189A      2.540748   190A      2.579653   191A      2.628608  
     192A      2.646089   193A      2.682247   194A      2.686013  
     195A      2.723837   196A      2.769590   197A      2.787508  
     198A      2.875404   199A      2.875693   200A      2.891076  
     201A      2.914470   202A      2.921355   203A      2.954102  
     204A      2.959154   205A      2.963880   206A      3.076768  
     207A      3.098054   208A      3.119348   209A      3.127730  
     210A      3.181516   211A      3.186573   212A      3.204728  
     213A      3.215608   214A      3.240050   215A      3.261399  
     216A      3.306602   217A      3.332698   218A      3.408641  
     219A      3.412061   220A      3.414519   221A      3.434651  
     222A      3.441131   223A      3.472041   224A      3.484461  
     225A      3.500928   226A      3.524423   227A      3.538804  
     228A      3.602545   229A      3.626652   230A      3.630634  
     231A      3.667176   232A      3.682907   233A      3.695549  
     234A      3.706352   235A      3.728364   236A      3.730361  
     237A      3.749430   238A      3.816227   239A      3.832929  
     240A      3.843261   241A      3.866125   242A      3.873832  
     243A      3.926872   244A      3.952165   245A      3.959860  
     246A      3.961494   247A      3.964720   248A      4.004348  
     249A      4.018824   250A      4.049046   251A      4.053551  
     252A      4.073997   253A      4.105508   254A      4.111815  
     255A      4.145058   256A      4.163442   257A      4.169883  
     258A      4.180321   259A      4.185733   260A      4.212063  
     261A      4.235282   262A      4.245012   263A      4.258472  
     264A      4.264041   265A      4.267941   266A      4.316000  
     267A      4.343798   268A      4.365951   269A      4.424965  
     270A      4.471370   271A      4.479683   272A      4.482362  
     273A      4.496048   274A      4.511657   275A      4.526822  
     276A      4.552297   277A      4.583462   278A      4.638482  
     279A      4.688501   280A      4.689146   281A      4.702275  
     282A      4.706349   283A      4.730880   284A      4.744068  
     285A      4.756000   286A      4.806186   287A      4.820727  
     288A      4.821185   289A      4.837967   290A      4.885960  
     291A      4.907792   292A      4.957800   293A      4.964111  
     294A      4.964596   295A      5.097066   296A      5.117888  
     297A      5.125563   298A      5.191214   299A      5.194885  
     300A      5.238861   301A      5.266533   302A      5.282544  
     303A      5.394824   304A      5.417928   305A      5.435462  
     306A      5.465381   307A      5.473084   308A      5.580828  
     309A      5.582254   310A      5.596453   311A      5.653383  
     312A      5.705503   313A      5.713473   314A      5.717590  
     315A      5.862620   316A      5.869383   317A      5.897762  
     318A      5.926302   319A      6.061212   320A      6.123510  
     321A      6.140911   322A      6.205877   323A      6.240942  
     324A      6.281581   325A      6.284559   326A      6.347866  
     327A      6.384438   328A      6.492806   329A      6.559787  
     330A      6.901427   331A      6.901558   332A      6.939453  
     333A      6.962622   334A      6.996097   335A      7.024359  
     336A      7.104789   337A      7.128455   338A      7.172439  
     339A      7.189378   340A      7.226231   341A      7.238198  
     342A      7.389214   343A      7.488054   344A      7.587936  
     345A      7.608720   346A      7.634383   347A      7.736857  
     348A      7.793292   349A      7.820834   350A      7.910707  
     351A      8.038066   352A      8.194533   353A      8.219699  
     354A      8.226955   355A     14.246270   356A     15.442023  
     357A     15.553109   358A     15.869971   359A     17.395616  
     360A     18.711768  

    Final Occupation by Irrep:
              A 
    DOCC [    23 ]

  @DF-RHF Final Energy:  -304.73552216791097

   => Energetics <=

    Nuclear Repulsion Energy =            257.0173615124658681
    One-Electron Energy =                -925.5846978368551845
    Two-Electron Energy =                 363.8318141564783446
    Total Energy =                       -304.7355221679109718

Computation Completed


Properties will be evaluated at   0.000000,   0.000000,   0.000000 [a0]

Properties computed using the SCF density matrix

  Nuclear Dipole Moment: [e a0]
     X:    -4.4896      Y:    -0.0001      Z:     0.0000

  Electronic Dipole Moment: [e a0]
     X:     3.7173      Y:    -0.0002      Z:    -0.0003

  Dipole Moment: [e a0]
     X:    -0.7723      Y:    -0.0003      Z:    -0.0003     Total:     0.7723

  Dipole Moment: [D]
     X:    -1.9629      Y:    -0.0007      Z:    -0.0007     Total:     1.9629


*** tstop() called on n076 at Mon Jun  8 14:56:14 2020
Module time:
	user time   =      30.14 seconds =       0.50 minutes
	system time =       1.41 seconds =       0.02 minutes
	total time  =          8 seconds =       0.13 minutes
Total time:
	user time   =     199.41 seconds =       3.32 minutes
	system time =       7.40 seconds =       0.12 minutes
	total time  =         54 seconds =       0.90 minutes

*** tstart() called on n076
*** at Mon Jun  8 14:56:14 2020


  //>>>>>>>>>>>>>>>>>>>>>>>>>>>>>>>>>>>//
  //               DFMP2               //
  //<<<<<<<<<<<<<<<<<<<<<<<<<<<<<<<<<<<//

   => Loading Basis Set <=

    Name: (HEAVY-AUG-CC-PV(T+D)Z AUX)
    Role: RIFIT
    Keyword: DF_BASIS_MP2
    atoms 1, 4, 7, 10     entry C          line   148 file /opt/psi/4/master/share/psi4/basis/heavy-aug-cc-pvtz-ri.gbs 
    atoms 2-3, 5-6, 8, 11 entry H          line    44 file /opt/psi/4/master/share/psi4/basis/heavy-aug-cc-pvtz-ri.gbs 
    atoms 9, 12           entry O          line   264 file /opt/psi/4/master/share/psi4/basis/heavy-aug-cc-pvtz-ri.gbs 

	 --------------------------------------------------------
	                          DF-MP2                         
	      2nd-Order Density-Fitted Moller-Plesset Theory     
	              RMP2 Wavefunction,   4 Threads             
	                                                         
	        Rob Parrish, Justin Turney, Andy Simmonett,      
	           Ed Hohenstein, and C. David Sherrill          
	 --------------------------------------------------------

   => Auxiliary Basis Set <=

  Basis Set: (HEAVY-AUG-CC-PV(T+D)Z AUX)
    Blend: HEAVY-AUG-CC-PVTZ-RI
    Number of shells: 228
    Number of basis function: 816
    Number of Cartesian functions: 1026
    Spherical Harmonics?: true
    Max angular momentum: 4

	 --------------------------------------------------------
	                 NBF =   360, NAUX =   816
	 --------------------------------------------------------
	   CLASS    FOCC     OCC    AOCC    AVIR     VIR    FVIR
	   PAIRS       6      23      17     337     337       0
	 --------------------------------------------------------

	-----------------------------------------------------------
	 ==================> DF-MP2 Energies <==================== 
	-----------------------------------------------------------
	 Reference Energy          =    -304.7355221679109718 [Eh]
	 Singles Energy            =      -0.0000000000000000 [Eh]
	 Same-Spin Energy          =      -0.2854817427462276 [Eh]
	 Opposite-Spin Energy      =      -0.8633067746487815 [Eh]
	 Correlation Energy        =      -1.1487885173950090 [Eh]
	 Total Energy              =    -305.8843106853059908 [Eh]
	-----------------------------------------------------------
	 ================> DF-SCS-MP2 Energies <================== 
	-----------------------------------------------------------
	 SCS Same-Spin Scale       =       0.3333333333333333 [-]
	 SCS Opposite-Spin Scale   =       1.2000000000000000 [-]
	 SCS Same-Spin Energy      =      -0.0951605809154092 [Eh]
	 SCS Opposite-Spin Energy  =      -1.0359681295785377 [Eh]
	 SCS Correlation Energy    =      -1.1311287104939469 [Eh]
	 SCS Total Energy          =    -305.8666508784049256 [Eh]
	-----------------------------------------------------------


*** tstop() called on n076 at Mon Jun  8 14:56:16 2020
Module time:
	user time   =       5.76 seconds =       0.10 minutes
	system time =       0.08 seconds =       0.00 minutes
	total time  =          2 seconds =       0.03 minutes
Total time:
	user time   =     205.17 seconds =       3.42 minutes
	system time =       7.48 seconds =       0.12 minutes
	total time  =         56 seconds =       0.93 minutes

========================OPTAVC-XTPL==========================

MP2/TZ correlation energy -1.148788517395009

=============================================================

    Psi4 stopped on: Monday, 08 June 2020 02:56PM
    Psi4 wall time for execution: 0:00:55.66

*** Psi4 exiting successfully. Buy a developer a beer!
