
 Primary working directories    : /tmp/320938.737.gen6.q
 Secondary working directories  : /tmp/320938.737.gen6.q
 Wavefunction directory         : /home/vulcan/mel64643/wfu/
 Main file repository           : /tmp/320938.737.gen6.q/

 ARCHNAME  : Linux/x86_64
 FC        : /opt/intel/compilers_and_libraries_2016.1.150/linux/bin/intel64/ifort
 FCVERSION : 16.0.1
 BLASLIB   : -mkl
 id        : ccgc

 Nodes     nprocs
 n083         3
 Number of processes for MPI-2 version of Molpro:   nprocs(total)=    4   nprocs(compute)=    3   nprocs(helper)=    1
 ga_uses_ma=false, calling ma_init with nominal heap.
 GA-space will be limited to   8.0 MW (determined by -G option)

 Using customized tuning parameters: mindgm=10; mindgv=16; mindgc=4; mindgr=1; noblas=0; mincuda=1000; minvec=7
 default implementation of scratch files=sf  

 ***,Frequencies for min3
 memory,1000,m
 gthresh,energy=1.0d-10,orbital=1.0d-10,oneint=1.0d-16,twoint=1.0d-16,optgrad=1.0d-6,compress=1.0d-13
 geomtyp=xyz
 
  geometry = {
  12
  arbitrary comment
     C    1.776964391707    0.711398808326   -0.047331391796
     C    0.491811976407   -0.059992870174   -0.196493901896
     C    0.450909202373   -1.536434052255    0.101438343178
     O   -0.560880647667    0.727241277701    0.254443032848
     O   -1.838042523805    0.092453266771   -0.120539869318
     H    2.585189811624    0.211012008977   -0.611433277841
     H    1.660461273071    1.742568535034   -0.426547178655
     H    2.095014314938    0.773684282382    1.017649192795
     H   -0.505369719628   -1.980519819085   -0.220065056905
     H    1.281499437218   -2.048083580577   -0.417092944359
     H    0.561360833359   -1.719993995337    1.194785298125
     H   -1.988334525856    0.550063445421   -0.967059382888
  }
 
 basis=cc-pvdz
 {rhf;maxit,200}
 {uccsd(t);maxit,200}

 Variables initialized (661), CPU time= 0.00 sec
 Commands  initialized (458), CPU time= 0.01 sec, 486 directives.
 Default parameters read. Elapsed time= 0.05 sec

 Checking input...
 Passed
1


                                         ***  PROGRAM SYSTEM MOLPRO  ***
                         Copyright, University College Cardiff Consultants Limited, 2008

                                    Version 2010.1 linked May 16 2016 07:17:05


 **********************************************************************************************************************************
 LABEL *   Frequencies for min3                                                          
 Linux-4.4.3/n083(x86_64) 64 bit mpp version                                             DATE: 07-Mar-20          TIME: 05:18:34  
 **********************************************************************************************************************************

 SHA1:             9e8077add272b0f3cad6f7df79ec5211205f459d
 **********************************************************************************************************************************

 THRESHOLDS:

 ZERO    =  1.00D-12  ONEINT  =  1.00D-16  TWOINT  =  1.00D-16  PREFAC  =  1.00D-14  LOCALI  =  1.00D-09  EORDER  =  1.00D-04
 ENERGY  =  1.00D-10  ETEST   =  0.00D+00  EDENS   =  0.00D+00  THRDEDEF=  1.00D-06  GRADIENT=  1.00D-02  STEP    =  1.00D-03
 ORBITAL =  1.00D-10  CIVEC   =  1.00D-05  COEFF   =  1.00D-04  PRINTCI =  5.00D-02  PUNCHCI =  9.90D+01  OPTGRAD =  1.00D-06
 OPTENERG=  1.00D-06  OPTSTEP =  3.00D-04  THRGRAD =  1.00D-10  COMPRESS=  1.00D-13  VARMIN  =  1.00D-07  VARMAX  =  1.00D-03
 THRDOUB =  0.00D+00  THRDIV  =  1.00D-05  THRRED  =  1.00D-07  THRPSP  =  1.00D+00  THRDC   =  1.00D-10  THRCS   =  1.00D-10
 THRNRM  =  1.00D-08  THREQ   =  0.00D+00  THRDE   =  1.00D+00  THRREF  =  1.00D-05  SPARFAC =  1.00D+00  THRDLP  =  1.00D-07
 THRDIA  =  1.00D-10  THRDLS  =  1.00D-07  THRGPS  =  0.00D+00  THRKEX  =  0.00D+00  THRDIS  =  2.00D-01  THRVAR  =  1.00D-10
 THRLOC  =  1.00D-06  THRGAP  =  1.00D-06  THRLOCT = -1.00D+00  THRGAPT = -1.00D+00  THRORB  =  1.00D-06  THRMLTP =  0.00D+00
 THRCPQCI=  1.00D-10  KEXTA   =  0.00D+00  THRCOARS=  0.00D+00  SYMTOL  =  1.00D-06  GRADTOL =  1.00D-06  THROVL  =  1.00D-08
 THRORTH =  1.00D-08  GRID    =  1.00D-06  GRIDMAX =  1.00D-03  DTMAX   =  0.00D+00

 SETTING GEOMTYP        =    XYZ

 Variable memory set to 1000000000 words,  buffer space   230000 words

 SETTING BASIS          =    CC-PVDZ


 Recomputing integrals since basis changed


 Using spherical harmonics

 Library entry C      S cc-pVDZ              selected for orbital group  1
 Library entry C      P cc-pVDZ              selected for orbital group  1
 Library entry C      D cc-pVDZ              selected for orbital group  1
 Library entry O      S cc-pVDZ              selected for orbital group  2
 Library entry O      P cc-pVDZ              selected for orbital group  2
 Library entry O      D cc-pVDZ              selected for orbital group  2
 Library entry H      S cc-pVDZ              selected for orbital group  3
 Library entry H      P cc-pVDZ              selected for orbital group  3

1PROGRAM * SEWARD (Integral evaluation for generally contracted gaussian basis sets)     Author: Roland Lindh, 1990

 Geometry written to block  1 of record 700


 Point group  C1  



 ATOMIC COORDINATES

 NR  ATOM    CHARGE       X              Y              Z

   1  C       6.00    3.357976046    1.344348918   -0.089443368
   2  C       6.00    0.929389944   -0.113370094   -0.371319661
   3  C       6.00    0.852094903   -2.903439578    0.191690688
   4  O       8.00   -1.059910817    1.374286846    0.480827648
   5  O       8.00   -3.473396988    0.174711354   -0.227787341
   6  H       1.00    4.885300742    0.398754907   -1.155441443
   7  H       1.00    3.137817058    3.292977296   -0.806057350
   8  H       1.00    3.959003297    1.462051406    1.923078272
   9  H       1.00   -0.955010365   -3.742640056   -0.415862689
  10  H       1.00    2.421682974   -3.870317062   -0.788191436
  11  H       1.00    1.060818236   -3.250317599    2.257816999
  12  H       1.00   -3.757407712    1.039469267   -1.827477386

 Bond lengths in Bohr (Angstrom)

 1-2  2.846476668  1-6  2.088832367  1-7  2.087859702  1-8  2.103647067  2-3  2.847357178
     ( 1.506290578)     ( 1.105362482)     ( 1.104847770)     ( 1.113202084)     ( 1.506756524)

  2- 4  2.626137035   3- 9  2.083028564   3-10  2.087732684   3-11  2.105413909   4- 5  2.786760137
       ( 1.389691866)       ( 1.102291242)       ( 1.104780555)       ( 1.114137056)       ( 1.474689952)

  5-12  1.840509870
       ( 0.973955876)

 Bond angles

  1-2-3  120.35726316   1-2-4  108.90844623   2-1-6  109.96679757   2-1-7  110.73261791

  2- 1- 8  111.54014282   2- 3- 9  111.13999965   2- 3-10  109.91288487   2- 3-11  110.65808408

  2- 4- 5  109.24946991   3- 2- 4  118.05762328   4- 5-12   98.76614006   6- 1- 7  108.93182217

  6- 1- 8  107.73706041   7- 1- 8  107.83444553   9- 3-10  109.19300534   9- 3-11  107.80957929

 10- 3-11  108.04475555

 NUCLEAR CHARGE:                   41
 NUMBER OF PRIMITIVE AOS:         184
 NUMBER OF SYMMETRY AOS:          179
 NUMBER OF CONTRACTIONS:          105   ( 105A   )
 NUMBER OF CORE ORBITALS:           5   (   5A   )
 NUMBER OF VALENCE ORBITALS:       27   (  27A   )


 NUCLEAR REPULSION ENERGY  183.22146538


 Eigenvalues of metric

         1 0.345E-02 0.435E-02 0.105E-01 0.141E-01 0.182E-01 0.214E-01 0.331E-01 0.345E-01


 Contracted 2-electron integrals neglected if value below      1.0D-16
 AO integral compression algorithm  1   Integral accuracy      1.0D-16

     127.402 MB (compressed) written to integral file ( 93.4%)

     Node minimum: 30.671 MB, node maximum: 50.070 MB


 NUMBER OF SORTED TWO-ELECTRON INTEGRALS:    5164320.     BUFFER LENGTH:  32768
 NUMBER OF SEGMENTS:   1  SEGMENT LENGTH:    5164320      RECORD LENGTH: 524288

 Memory used in sort:       5.72 MW

 SORT1 READ    17075548. AND WROTE     5135889. INTEGRALS IN     15 RECORDS. CPU TIME:     0.30 SEC, REAL TIME:     0.33 SEC
 SORT2 READ    15396588. AND WROTE    15487395. INTEGRALS IN    573 RECORDS. CPU TIME:     0.09 SEC, REAL TIME:     0.13 SEC

 Node minimum:     5160610.  Node maximum:     5164320. integrals

 OPERATOR DM      FOR CENTER  0  COORDINATES:    0.000000    0.000000    0.000000


 **********************************************************************************************************************************
 DATASETS  * FILE   NREC   LENGTH (MB)   RECORD NAMES
              1      18        3.17       500      610      700      900      950      970     1000      129      960     1100   
                                          VAR    BASINP    GEOM    SYMINP    ZMAT    AOBASIS   BASIS     P2S    ABASIS      S 
                                         1400     1410     1200     1210     1080     1600     1650     1700   
                                           T        V       H0       H01     AOSYM     SMH    MOLCAS    OPER   

 PROGRAMS   *        TOTAL       INT
 CPU TIMES  *         1.01      0.95
 REAL TIME  *         1.40 SEC
 DISK USED  *       315.67 MB      
 GA USED    *         0.00 MB       (max)       0.00 MB       (current)
 **********************************************************************************************************************************

1PROGRAM * RHF-SCF (OPEN SHELL)       Authors: W. Meyer, H.-J. Werner


 NUMBER OF ELECTRONS:      21+   20-    SPACE SYMMETRY=1    SPIN SYMMETRY: Doublet 
 CONVERGENCE THRESHOLDS:    1.00E-10 (Density)    1.00E-11 (Energy)
 MAX. NUMBER OF ITERATIONS:      200
 INTERPOLATION TYPE:            DIIS
 INTERPOLATION STEPS:              2 (START)      1 (STEP)
 LEVEL SHIFTS:                 -0.30 (CLOSED)  0.00 (OPEN) 



 Orbital guess generated from atomic densities. Full valence occupancy:   32

 Molecular orbital dump at record        2100.2

 ITERATION    DDIFF          GRAD             ENERGY        2-EL.EN.            DIPOLE MOMENTS         DIIS
    1      0.000D+00      0.000D+00      -267.17825358    555.813061    0.57001    0.04877   -0.74921    0
    2      0.000D+00      0.617D-02      -267.24895019    555.736217    0.41423   -0.13167   -0.59870    1
    3      0.928D-02      0.214D-02      -267.26113127    555.653870    0.39387   -0.05972   -0.62611    2
    4      0.336D-02      0.912D-03      -267.26474190    555.806347    0.37926   -0.09987   -0.64255    3
    5      0.186D-02      0.363D-03      -267.26531127    555.777780    0.38179   -0.09339   -0.63554    4
    6      0.792D-03      0.110D-03      -267.26538776    555.764028    0.38004   -0.09320   -0.63829    5
    7      0.277D-03      0.511D-04      -267.26540791    555.761028    0.37932   -0.09295   -0.63779    6
    8      0.144D-03      0.273D-04      -267.26541398    555.759084    0.37959   -0.09307   -0.63800    7
    9      0.924D-04      0.115D-04      -267.26541489    555.759397    0.37977   -0.09303   -0.63776    8
   10      0.366D-04      0.501D-05      -267.26541505    555.760009    0.38003   -0.09304   -0.63782    9
   11      0.147D-04      0.197D-05      -267.26541508    555.759850    0.38008   -0.09303   -0.63783    9
   12      0.651D-05      0.671D-06      -267.26541508    555.759985    0.38010   -0.09303   -0.63782    9
   13      0.227D-05      0.227D-06      -267.26541508    555.759900    0.38010   -0.09303   -0.63782    9
   14      0.633D-06      0.758D-07      -267.26541508    555.759909    0.38010   -0.09303   -0.63782    9
   15      0.193D-06      0.300D-07      -267.26541508    555.759905    0.38010   -0.09303   -0.63782    9
   16      0.823D-07      0.145D-07      -267.26541508    555.759907    0.38010   -0.09304   -0.63782    9
   17      0.373D-07      0.748D-08      -267.26541508    555.759907    0.38010   -0.09304   -0.63782    9
   18      0.221D-07      0.341D-08      -267.26541508    555.759907    0.38010   -0.09304   -0.63782    9
   19      0.114D-07      0.133D-08      -267.26541508    555.759907    0.38010   -0.09304   -0.63782    9
   20      0.444D-08      0.566D-09      -267.26541508    555.759907    0.38010   -0.09304   -0.63782    9
   21      0.165D-08      0.286D-09      -267.26541508    555.759907    0.38010   -0.09304   -0.63782    9
   22      0.752D-09      0.161D-09      -267.26541508    555.759907    0.38010   -0.09304   -0.63782    9
   23      0.445D-09      0.795D-10      -267.26541508    555.759907    0.38010   -0.09304   -0.63782    9
   24      0.263D-09      0.317D-10      -267.26541508    555.759907    0.38010   -0.09304   -0.63782    9
   25      0.932D-10      0.129D-10      -267.26541508    555.759907    0.38010   -0.09304   -0.63782    0

 Final alpha occupancy:  21
 Final beta  occupancy:  20

 !RHF STATE 1.1 Energy               -267.265415080120
 Nuclear energy                       183.22146538
 One-electron energy                 -728.36683381
 Two-electron energy                  277.87995335
 Virial quotient                       -1.00155086
 !RHF STATE 1.1 Dipole moment           0.38010449    -0.09303521    -0.63782286
 Dipole moment /Debye                   0.96606598    -0.23645644    -1.62107784

 Orbital energies:

         1.1          2.1          3.1          4.1          5.1          6.1          7.1          8.1          9.1         10.1
    -20.630524   -20.628790   -11.279275   -11.237828   -11.232142    -1.470188    -1.240807    -1.023241    -0.945368    -0.768495

        11.1         12.1         13.1         14.1         15.1         16.1         17.1         18.1         19.1         20.1
     -0.704651    -0.643002    -0.626741    -0.588818    -0.545137    -0.543584    -0.539012    -0.516969    -0.493040    -0.469673

        21.1         22.1         23.1
     -0.352356     0.181319     0.183534


 **********************************************************************************************************************************
 DATASETS  * FILE   NREC   LENGTH (MB)   RECORD NAMES
              1      18        3.17       500      610      700      900      950      970     1000      129      960     1100   
                                          VAR    BASINP    GEOM    SYMINP    ZMAT    AOBASIS   BASIS     P2S    ABASIS      S 
                                         1400     1410     1200     1210     1080     1600     1650     1700   
                                           T        V       H0       H01     AOSYM     SMH    MOLCAS    OPER   

              2       3        0.77       700     1000     2100   
                                         GEOM     BASIS     RHF  

 PROGRAMS   *        TOTAL       RHF       INT
 CPU TIMES  *         2.32      1.31      0.95
 REAL TIME  *         2.84 SEC
 DISK USED  *       332.23 MB      
 SF USED    *         0.04 MB      
 GA USED    *         0.00 MB       (max)       0.00 MB       (current)
 **********************************************************************************************************************************


1PROGRAM * CCSD (Unrestricted open-shell coupled cluster)     Authors: C. Hampel, H.-J. Werner, 1991, M. Deegan, P.J. Knowles, 1992


 Convergence thresholds:  THRVAR = 1.00D-08  THRDEN = 1.00D-10

 CCSD(T)     terms to be evaluated (factor= 1.000)


 Number of core orbitals:           5 (   5 )
 Number of closed-shell orbitals:  15 (  15 )
 Number of active  orbitals:        1 (   1 )
 Number of external orbitals:      84 (  84 )

 Memory could be reduced to 24.91 Mwords without degradation in triples

 Number of N-1 electron functions:              31
 Number of N-2 electron functions:             465
 Number of singly external CSFs:              2635
 Number of doubly external CSFs:           2537250
 Total number of CSFs:                     2539885

 Molecular orbitals read from record     2100.2  Type=RHF/CANONICAL (state 1.1)

 Integral transformation finished. Total CPU:   0.87 sec, npass=  1  Memory used:  12.63 MW

 Starting RMP2 calculation

 ITER.      SQ.NORM     CORR.ENERGY   TOTAL ENERGY   ENERGY CHANGE        DEN1      VAR(S)    VAR(P)  DIIS     TIME
   1      1.24301262    -0.78635238  -268.05176746    -0.78635238    -0.00304957  0.20D-04  0.11D-02  1  1     1.18
   2      1.24565373    -0.78964113  -268.05505621    -0.00328875    -0.00000474  0.54D-06  0.19D-05  2  2     1.45
   3      1.24571927    -0.78968319  -268.05509827    -0.00004206    -0.00000003  0.16D-07  0.68D-08  3  3     1.73
   4      1.24572023    -0.78968319  -268.05509827    -0.00000000    -0.00000000  0.27D-09  0.38D-10  4  4     2.03
   5      1.24572031    -0.78968322  -268.05509830    -0.00000003    -0.00000000  0.25D-11  0.65D-12  5  5     2.35
   6      1.24572032    -0.78968323  -268.05509831    -0.00000001    -0.00000000  0.28D-13  0.87D-14  6  6     2.70
   7      1.24572032    -0.78968323  -268.05509831     0.00000000    -0.00000000  0.47D-15  0.12D-15  6  1     3.05
   8      1.24572032    -0.78968323  -268.05509831     0.00000000    -0.00000000  0.59D-17  0.13D-17  6  2     3.40

 Norm of t1 vector:      0.03892521      S-energy:    -0.00227080      T1 diagnostic:  0.00055029
 Norm of t2 vector:      0.49417118      P-energy:    -0.78741243
                                         Alpha-Beta:  -0.59339690
                                         Alpha-Alpha: -0.10093878
                                         Beta-Beta:   -0.09307675

 Spin contamination <S**2-Sz**2-Sz>     0.00104018
  Reference energy                   -267.265415080119
  RHF-RMP2 correlation energy          -0.789683230053
 !RHF-RMP2 energy                    -268.055098310172

 Starting UCCSD calculation

 ITER.      SQ.NORM     CORR.ENERGY   TOTAL ENERGY   ENERGY CHANGE        DEN1      VAR(S)    VAR(P)  DIIS     TIME
   1      1.26278771    -0.80902810  -268.07444318    -0.80902810    -0.02515427  0.38D-02  0.59D-02  1  1     9.12
   2      1.29155951    -0.83643546  -268.10185054    -0.02740737    -0.00201086  0.22D-03  0.66D-03  2  2    14.80
   3      1.30149961    -0.84093280  -268.10634788    -0.00449734    -0.00032465  0.19D-03  0.56D-04  3  3    20.52
   4      1.30641286    -0.84240986  -268.10782494    -0.00147706    -0.00007210  0.43D-04  0.14D-04  4  4    26.25
   5      1.30914337    -0.84279807  -268.10821315    -0.00038821    -0.00002368  0.19D-04  0.32D-05  5  5    31.73
   6      1.31108305    -0.84300260  -268.10841768    -0.00020453    -0.00000646  0.42D-05  0.12D-05  6  6    37.53
   7      1.31203266    -0.84306141  -268.10847649    -0.00005881    -0.00000208  0.14D-05  0.37D-06  6  2    43.29
   8      1.31247436    -0.84310409  -268.10851917    -0.00004269    -0.00000065  0.45D-06  0.11D-06  6  1    49.05
   9      1.31265960    -0.84310867  -268.10852375    -0.00000458    -0.00000022  0.15D-06  0.35D-07  6  4    54.81
  10      1.31272277    -0.84311160  -268.10852668    -0.00000293    -0.00000005  0.35D-07  0.95D-08  6  3    60.58
  11      1.31275226    -0.84311034  -268.10852542     0.00000126    -0.00000002  0.13D-07  0.28D-08  6  5    66.50
  12      1.31276264    -0.84311008  -268.10852516     0.00000026    -0.00000000  0.26D-08  0.95D-09  6  6    72.29
  13      1.31276150    -0.84310917  -268.10852425     0.00000091    -0.00000000  0.96D-09  0.28D-09  6  2    78.07
  14      1.31275630    -0.84310832  -268.10852340     0.00000084    -0.00000000  0.21D-09  0.67D-10  6  1    83.85
  15      1.31275222    -0.84310774  -268.10852282     0.00000059    -0.00000000  0.78D-10  0.19D-10  6  4    89.61
  16      1.31274904    -0.84310735  -268.10852243     0.00000038    -0.00000000  0.28D-10  0.63D-11  6  3    95.38
  17      1.31274684    -0.84310711  -268.10852219     0.00000024    -0.00000000  0.10D-10  0.24D-11  6  5   101.16
  18      1.31274593    -0.84310705  -268.10852213     0.00000006    -0.00000000  0.41D-11  0.87D-12  6  6   106.93
  19      1.31274532    -0.84310702  -268.10852210     0.00000003    -0.00000000  0.16D-11  0.37D-12  6  2   112.71
  20      1.31274500    -0.84310701  -268.10852209     0.00000001    -0.00000000  0.60D-12  0.13D-12  6  1   118.47
  21      1.31274484    -0.84310700  -268.10852208     0.00000001    -0.00000000  0.28D-12  0.58D-13  6  4   124.24
  22      1.31274472    -0.84310699  -268.10852207     0.00000001    -0.00000000  0.74D-13  0.21D-13  6  3   129.87
  23      1.31274466    -0.84310699  -268.10852207     0.00000000    -0.00000000  0.21D-13  0.63D-14  6  5   135.64
  24      1.31274465    -0.84310699  -268.10852207    -0.00000000    -0.00000000  0.67D-14  0.23D-14  6  6   141.41
  25      1.31274466    -0.84310699  -268.10852207    -0.00000000    -0.00000000  0.21D-14  0.52D-15  6  2   147.17
  26      1.31274466    -0.84310699  -268.10852207    -0.00000000    -0.00000000  0.77D-15  0.15D-15  6  1   152.97
  27      1.31274467    -0.84310699  -268.10852207    -0.00000000    -0.00000000  0.20D-15  0.63D-16  6  3   158.54
  28      1.31274468    -0.84310699  -268.10852207    -0.00000000    -0.00000000  0.30D-16  0.11D-16  6  4   163.34
  29      1.31274468    -0.84310699  -268.10852207    -0.00000000    -0.00000000  0.71D-17  0.29D-17  6  5   168.15
  30      1.31274468    -0.84310699  -268.10852207    -0.00000000    -0.00000000  0.15D-17  0.54D-18  6  6   172.95
  31      1.31274468    -0.84310699  -268.10852207    -0.00000000    -0.00000000  0.35D-18  0.10D-18  6  2   177.75

 Norm of t1 vector:      0.13871787      S-energy:    -0.00282038      T1 diagnostic:  0.01616950
                                                                       D1 diagnostic:  0.06281521
 Norm of t2 vector:      0.54175828      P-energy:    -0.84028661
                                         Alpha-Beta:  -0.66484288
                                         Alpha-Alpha: -0.09147373
                                         Beta-Beta:   -0.08397000

 Spin contamination <S**2-Sz**2-Sz>     0.00217196

 Memory could be reduced to 28.85 Mwords without degradation in triples
 

 RESULTS
 =======

  Reference energy                   -267.265415080119
  UCCSD singles energy                 -0.002820377655
  UCCSD pair energy                    -0.840286611797
  UCCSD correlation energy             -0.843106989452
  Triples (T) contribution             -0.024974719957
  Total correlation energy             -0.868081709408
 
  RHF-UCCSD energy                   -268.108522069571
  RHF-UCCSD[T] energy                -268.134832643937
  RHF-UCCSD-T energy                 -268.133075310427
 !RHF-UCCSD(T) energy                -268.133496789527

 Program statistics:

 Available memory in ccsd:               999997692
 Min. memory needed in ccsd:               7337057
 Max. memory used in ccsd:                10523002
 Max. memory used in cckext:              10867977 (31 integral passes)
 Max. memory used in cckint:              12633073 ( 1 integral passes)



 **********************************************************************************************************************************
 DATASETS  * FILE   NREC   LENGTH (MB)   RECORD NAMES
              1      18        3.17       500      610      700      900      950      970     1000      129      960     1100   
                                          VAR    BASINP    GEOM    SYMINP    ZMAT    AOBASIS   BASIS     P2S    ABASIS      S 
                                         1400     1410     1200     1210     1080     1600     1650     1700   
                                           T        V       H0       H01     AOSYM     SMH    MOLCAS    OPER   

              2       3        0.77       700     1000     2100   
                                         GEOM     BASIS     RHF  

 PROGRAMS   *        TOTAL  UCCSD(T)       RHF       INT
 CPU TIMES  *       216.69    214.37      1.31      0.95
 REAL TIME  *       227.19 SEC
 DISK USED  *         1.30 GB      
 SF USED    *       553.73 MB      
 GA USED    *         0.00 MB       (max)       0.00 MB       (current)
 **********************************************************************************************************************************

        UCCSD(T)        RHF-SCF 
   -268.13349679   -267.26541508
 **********************************************************************************************************************************
 Variable memory released
