
 Primary working directories    : /tmp/320938.39.gen6.q
 Secondary working directories  : /tmp/320938.39.gen6.q
 Wavefunction directory         : /home/vulcan/mel64643/wfu/
 Main file repository           : /tmp/320938.39.gen6.q/

 ARCHNAME  : Linux/x86_64
 FC        : /opt/intel/compilers_and_libraries_2016.1.150/linux/bin/intel64/ifort
 FCVERSION : 16.0.1
 BLASLIB   : -mkl
 id        : ccgc

 Nodes     nprocs
 n080         3
 Number of processes for MPI-2 version of Molpro:   nprocs(total)=    4   nprocs(compute)=    3   nprocs(helper)=    1
 ga_uses_ma=false, calling ma_init with nominal heap.
 GA-space will be limited to   8.0 MW (determined by -G option)

 Using customized tuning parameters: mindgm=10; mindgv=16; mindgc=4; mindgr=1; noblas=0; mincuda=1000; minvec=7
 default implementation of scratch files=sf  

 ***,Frequencies for min3
 memory,1000,m
 gthresh,energy=1.0d-10,orbital=1.0d-10,oneint=1.0d-16,twoint=1.0d-16,optgrad=1.0d-6,compress=1.0d-13
 geomtyp=xyz
 
  geometry = {
  12
  arbitrary comment
     C    1.776964391707    0.711398808326   -0.047331391796
     C    0.491811976407   -0.059992870174   -0.196493901896
     C    0.450332819107   -1.536294019674    0.101417522804
     O   -0.560767745493    0.727234937526    0.254453964104
     O   -1.837840335593    0.092269037726   -0.120744006066
     H    2.585111305565    0.211538876738   -0.611728301163
     H    1.660272748897    1.742940268964   -0.426107706419
     H    2.095663105945    0.773849339803    1.017697983927
     H   -0.504967851860   -1.982733758472   -0.221148789267
     H    1.281164353866   -2.047862453754   -0.416607427484
     H    0.563020690609   -1.718488976224    1.195900762133
     H   -1.988580744573    0.550844707626   -0.964455655485
  }
 
 basis=cc-pvdz
 {rhf;maxit,200}
 {uccsd(t);maxit,200}

 Variables initialized (661), CPU time= 0.00 sec
 Commands  initialized (458), CPU time= 0.01 sec, 486 directives.
 Default parameters read. Elapsed time= 0.06 sec

 Checking input...
 Passed
1


                                         ***  PROGRAM SYSTEM MOLPRO  ***
                         Copyright, University College Cardiff Consultants Limited, 2008

                                    Version 2010.1 linked May 16 2016 07:17:05


 **********************************************************************************************************************************
 LABEL *   Frequencies for min3                                                          
 Linux-4.4.3/n080(x86_64) 64 bit mpp version                                             DATE: 07-Mar-20          TIME: 01:10:34  
 **********************************************************************************************************************************

 SHA1:             9e8077add272b0f3cad6f7df79ec5211205f459d
 **********************************************************************************************************************************

 THRESHOLDS:

 ZERO    =  1.00D-12  ONEINT  =  1.00D-16  TWOINT  =  1.00D-16  PREFAC  =  1.00D-14  LOCALI  =  1.00D-09  EORDER  =  1.00D-04
 ENERGY  =  1.00D-10  ETEST   =  0.00D+00  EDENS   =  0.00D+00  THRDEDEF=  1.00D-06  GRADIENT=  1.00D-02  STEP    =  1.00D-03
 ORBITAL =  1.00D-10  CIVEC   =  1.00D-05  COEFF   =  1.00D-04  PRINTCI =  5.00D-02  PUNCHCI =  9.90D+01  OPTGRAD =  1.00D-06
 OPTENERG=  1.00D-06  OPTSTEP =  3.00D-04  THRGRAD =  1.00D-10  COMPRESS=  1.00D-13  VARMIN  =  1.00D-07  VARMAX  =  1.00D-03
 THRDOUB =  0.00D+00  THRDIV  =  1.00D-05  THRRED  =  1.00D-07  THRPSP  =  1.00D+00  THRDC   =  1.00D-10  THRCS   =  1.00D-10
 THRNRM  =  1.00D-08  THREQ   =  0.00D+00  THRDE   =  1.00D+00  THRREF  =  1.00D-05  SPARFAC =  1.00D+00  THRDLP  =  1.00D-07
 THRDIA  =  1.00D-10  THRDLS  =  1.00D-07  THRGPS  =  0.00D+00  THRKEX  =  0.00D+00  THRDIS  =  2.00D-01  THRVAR  =  1.00D-10
 THRLOC  =  1.00D-06  THRGAP  =  1.00D-06  THRLOCT = -1.00D+00  THRGAPT = -1.00D+00  THRORB  =  1.00D-06  THRMLTP =  0.00D+00
 THRCPQCI=  1.00D-10  KEXTA   =  0.00D+00  THRCOARS=  0.00D+00  SYMTOL  =  1.00D-06  GRADTOL =  1.00D-06  THROVL  =  1.00D-08
 THRORTH =  1.00D-08  GRID    =  1.00D-06  GRIDMAX =  1.00D-03  DTMAX   =  0.00D+00

 SETTING GEOMTYP        =    XYZ

 Variable memory set to 1000000000 words,  buffer space   230000 words

 SETTING BASIS          =    CC-PVDZ


 Recomputing integrals since basis changed


 Using spherical harmonics

 Library entry C      S cc-pVDZ              selected for orbital group  1
 Library entry C      P cc-pVDZ              selected for orbital group  1
 Library entry C      D cc-pVDZ              selected for orbital group  1
 Library entry O      S cc-pVDZ              selected for orbital group  2
 Library entry O      P cc-pVDZ              selected for orbital group  2
 Library entry O      D cc-pVDZ              selected for orbital group  2
 Library entry H      S cc-pVDZ              selected for orbital group  3
 Library entry H      P cc-pVDZ              selected for orbital group  3

1PROGRAM * SEWARD (Integral evaluation for generally contracted gaussian basis sets)     Author: Roland Lindh, 1990

 Geometry written to block  1 of record 700


 Point group  C1  



 ATOMIC COORDINATES

 NR  ATOM    CHARGE       X              Y              Z

   1  C       6.00    3.357976046    1.344348918   -0.089443368
   2  C       6.00    0.929389944   -0.113370094   -0.371319661
   3  C       6.00    0.851005696   -2.903174955    0.191651343
   4  O       8.00   -1.059697462    1.374274865    0.480848305
   5  O       8.00   -3.473014908    0.174363212   -0.228173103
   6  H       1.00    4.885152387    0.399750543   -1.155998956
   7  H       1.00    3.137460799    3.293679772   -0.805226868
   8  H       1.00    3.960229334    1.462363319    1.923170474
   9  H       1.00   -0.954250945   -3.746823795   -0.417910646
  10  H       1.00    2.421049758   -3.869899192   -0.787273942
  11  H       1.00    1.063954912   -3.247473525    2.259924921
  12  H       1.00   -3.757872997    1.040945638   -1.822557055

 Bond lengths in Bohr (Angstrom)

 1-2  2.846476668  1-6  2.088557993  1-7  2.088268127  1-8  2.104103348  2-3  2.847119878
     ( 1.506290578)     ( 1.105217289)     ( 1.105063899)     ( 1.113443537)     ( 1.506630951)

  2- 4  2.625975338   3- 9  2.083809186   3-10  2.087555705   3-11  2.107520929   4- 5  2.786862111
       ( 1.389606300)       ( 1.102704329)       ( 1.104686902)       ( 1.115252043)       ( 1.474743914)

  5-12  1.836891237
       ( 0.972040978)

 Bond angles

  1-2-3  120.37866573   1-2-4  108.90555081   2-1-6  109.97910901   2-1-7  110.73242559

  2- 1- 8  111.57080827   2- 3- 9  111.26721654   2- 3-10  109.89739167   2- 3-11  110.56974484

  2- 4- 5  109.23589550   3- 2- 4  118.03986083   4- 5-12   98.74251084   6- 1- 7  108.92668613

  6- 1- 8  107.73021757   7- 1- 8  107.80203142   9- 3-10  109.08077999   9- 3-11  107.96709025

 10- 3-11  107.97210636

 NUCLEAR CHARGE:                   41
 NUMBER OF PRIMITIVE AOS:         184
 NUMBER OF SYMMETRY AOS:          179
 NUMBER OF CONTRACTIONS:          105   ( 105A   )
 NUMBER OF CORE ORBITALS:           5   (   5A   )
 NUMBER OF VALENCE ORBITALS:       27   (  27A   )


 NUCLEAR REPULSION ENERGY  183.23025620


 Eigenvalues of metric

         1 0.345E-02 0.435E-02 0.105E-01 0.141E-01 0.182E-01 0.214E-01 0.331E-01 0.346E-01


 Contracted 2-electron integrals neglected if value below      1.0D-16
 AO integral compression algorithm  1   Integral accuracy      1.0D-16

     127.402 MB (compressed) written to integral file ( 93.4%)

     Node minimum: 34.341 MB, node maximum: 56.623 MB


 NUMBER OF SORTED TWO-ELECTRON INTEGRALS:    5164320.     BUFFER LENGTH:  32768
 NUMBER OF SEGMENTS:   1  SEGMENT LENGTH:    5164320      RECORD LENGTH: 524288

 Memory used in sort:       5.72 MW

 SORT1 READ    17075332. AND WROTE     5135905. INTEGRALS IN     15 RECORDS. CPU TIME:     0.29 SEC, REAL TIME:     0.34 SEC
 SORT2 READ    15396656. AND WROTE    15487395. INTEGRALS IN    393 RECORDS. CPU TIME:     0.09 SEC, REAL TIME:     0.13 SEC

 Node minimum:     5160610.  Node maximum:     5164320. integrals

 OPERATOR DM      FOR CENTER  0  COORDINATES:    0.000000    0.000000    0.000000


 **********************************************************************************************************************************
 DATASETS  * FILE   NREC   LENGTH (MB)   RECORD NAMES
              1      18        3.17       500      610      700      900      950      970     1000      129      960     1100   
                                          VAR    BASINP    GEOM    SYMINP    ZMAT    AOBASIS   BASIS     P2S    ABASIS      S 
                                         1400     1410     1200     1210     1080     1600     1650     1700   
                                           T        V       H0       H01     AOSYM     SMH    MOLCAS    OPER   

 PROGRAMS   *        TOTAL       INT
 CPU TIMES  *         1.15      1.06
 REAL TIME  *         1.53 SEC
 DISK USED  *       318.33 MB      
 GA USED    *         0.00 MB       (max)       0.00 MB       (current)
 **********************************************************************************************************************************

1PROGRAM * RHF-SCF (OPEN SHELL)       Authors: W. Meyer, H.-J. Werner


 NUMBER OF ELECTRONS:      21+   20-    SPACE SYMMETRY=1    SPIN SYMMETRY: Doublet 
 CONVERGENCE THRESHOLDS:    1.00E-10 (Density)    1.00E-11 (Energy)
 MAX. NUMBER OF ITERATIONS:      200
 INTERPOLATION TYPE:            DIIS
 INTERPOLATION STEPS:              2 (START)      1 (STEP)
 LEVEL SHIFTS:                 -0.30 (CLOSED)  0.00 (OPEN) 



 Orbital guess generated from atomic densities. Full valence occupancy:   32

 Molecular orbital dump at record        2100.2

 ITERATION    DDIFF          GRAD             ENERGY        2-EL.EN.            DIPOLE MOMENTS         DIIS
    1      0.000D+00      0.000D+00      -267.17830106    555.825574    0.57227    0.04941   -0.74611    0
    2      0.000D+00      0.617D-02      -267.24898520    555.749459    0.41501   -0.13113   -0.59722    1
    3      0.928D-02      0.214D-02      -267.26117399    555.666991    0.39452   -0.05896   -0.62480    2
    4      0.336D-02      0.913D-03      -267.26479154    555.819723    0.37967   -0.09905   -0.64156    3
    5      0.186D-02      0.364D-03      -267.26536262    555.791177    0.38208   -0.09255   -0.63464    4
    6      0.793D-03      0.110D-03      -267.26543941    555.777479    0.38028   -0.09235   -0.63743    5
    7      0.277D-03      0.513D-04      -267.26545969    555.774468    0.37952   -0.09208   -0.63695    6
    8      0.144D-03      0.273D-04      -267.26546579    555.772536    0.37977   -0.09220   -0.63717    7
    9      0.927D-04      0.115D-04      -267.26546671    555.772846    0.37995   -0.09215   -0.63693    8
   10      0.366D-04      0.502D-05      -267.26546686    555.773458    0.38020   -0.09217   -0.63700    9
   11      0.147D-04      0.197D-05      -267.26546689    555.773299    0.38026   -0.09216   -0.63700    9
   12      0.653D-05      0.672D-06      -267.26546689    555.773433    0.38028   -0.09216   -0.63699    9
   13      0.228D-05      0.227D-06      -267.26546689    555.773348    0.38028   -0.09216   -0.63699    9
   14      0.633D-06      0.763D-07      -267.26546689    555.773357    0.38028   -0.09216   -0.63699    9
   15      0.194D-06      0.304D-07      -267.26546689    555.773353    0.38028   -0.09216   -0.63699    9
   16      0.835D-07      0.147D-07      -267.26546689    555.773355    0.38028   -0.09216   -0.63699    9
   17      0.382D-07      0.762D-08      -267.26546689    555.773355    0.38028   -0.09216   -0.63699    9
   18      0.227D-07      0.345D-08      -267.26546689    555.773355    0.38028   -0.09216   -0.63699    9
   19      0.115D-07      0.134D-08      -267.26546689    555.773355    0.38028   -0.09216   -0.63699    9
   20      0.446D-08      0.575D-09      -267.26546689    555.773355    0.38028   -0.09216   -0.63699    9
   21      0.168D-08      0.291D-09      -267.26546689    555.773355    0.38028   -0.09216   -0.63699    9
   22      0.767D-09      0.164D-09      -267.26546689    555.773355    0.38028   -0.09216   -0.63699    9
   23      0.452D-09      0.807D-10      -267.26546689    555.773355    0.38028   -0.09216   -0.63699    9
   24      0.267D-09      0.322D-10      -267.26546689    555.773355    0.38028   -0.09216   -0.63699    9
   25      0.946D-10      0.131D-10      -267.26546689    555.773355    0.38028   -0.09216   -0.63699    0

 Final alpha occupancy:  21
 Final beta  occupancy:  20

 !RHF STATE 1.1 Energy               -267.265466894603
 Nuclear energy                       183.23025620
 One-electron energy                 -728.38240043
 Two-electron energy                  277.88667733
 Virial quotient                       -1.00154564
 !RHF STATE 1.1 Dipole moment           0.38028372    -0.09216479    -0.63699269
 Dipole moment /Debye                   0.96652150    -0.23424418    -1.61896788

 Orbital energies:

         1.1          2.1          3.1          4.1          5.1          6.1          7.1          8.1          9.1         10.1
    -20.630546   -20.628616   -11.279290   -11.237894   -11.232314    -1.470392    -1.241177    -1.023235    -0.945308    -0.768549

        11.1         12.1         13.1         14.1         15.1         16.1         17.1         18.1         19.1         20.1
     -0.705017    -0.642987    -0.626746    -0.588909    -0.545137    -0.543480    -0.538942    -0.516904    -0.493051    -0.469876

        21.1         22.1         23.1
     -0.352303     0.181446     0.183627


 **********************************************************************************************************************************
 DATASETS  * FILE   NREC   LENGTH (MB)   RECORD NAMES
              1      18        3.17       500      610      700      900      950      970     1000      129      960     1100   
                                          VAR    BASINP    GEOM    SYMINP    ZMAT    AOBASIS   BASIS     P2S    ABASIS      S 
                                         1400     1410     1200     1210     1080     1600     1650     1700   
                                           T        V       H0       H01     AOSYM     SMH    MOLCAS    OPER   

              2       3        0.77       700     1000     2100   
                                         GEOM     BASIS     RHF  

 PROGRAMS   *        TOTAL       RHF       INT
 CPU TIMES  *         2.53      1.39      1.06
 REAL TIME  *         3.05 SEC
 DISK USED  *       334.90 MB      
 SF USED    *         0.04 MB      
 GA USED    *         0.00 MB       (max)       0.00 MB       (current)
 **********************************************************************************************************************************


1PROGRAM * CCSD (Unrestricted open-shell coupled cluster)     Authors: C. Hampel, H.-J. Werner, 1991, M. Deegan, P.J. Knowles, 1992


 Convergence thresholds:  THRVAR = 1.00D-08  THRDEN = 1.00D-10

 CCSD(T)     terms to be evaluated (factor= 1.000)


 Number of core orbitals:           5 (   5 )
 Number of closed-shell orbitals:  15 (  15 )
 Number of active  orbitals:        1 (   1 )
 Number of external orbitals:      84 (  84 )

 Memory could be reduced to 24.91 Mwords without degradation in triples

 Number of N-1 electron functions:              31
 Number of N-2 electron functions:             465
 Number of singly external CSFs:              2635
 Number of doubly external CSFs:           2537250
 Total number of CSFs:                     2539885

 Molecular orbitals read from record     2100.2  Type=RHF/CANONICAL (state 1.1)

 Integral transformation finished. Total CPU:   0.70 sec, npass=  1  Memory used:  12.63 MW

 Starting RMP2 calculation

 ITER.      SQ.NORM     CORR.ENERGY   TOTAL ENERGY   ENERGY CHANGE        DEN1      VAR(S)    VAR(P)  DIIS     TIME
   1      1.24297589    -0.78629015  -268.05175704    -0.78629015    -0.00304901  0.20D-04  0.11D-02  1  1     0.95
   2      1.24561658    -0.78957829  -268.05504518    -0.00328814    -0.00000475  0.54D-06  0.19D-05  2  2     1.19
   3      1.24568216    -0.78962037  -268.05508726    -0.00004208    -0.00000003  0.16D-07  0.68D-08  3  3     1.45
   4      1.24568311    -0.78962037  -268.05508726    -0.00000000    -0.00000000  0.27D-09  0.38D-10  4  4     1.73
   5      1.24568319    -0.78962040  -268.05508730    -0.00000003    -0.00000000  0.25D-11  0.65D-12  5  5     2.03
   6      1.24568321    -0.78962041  -268.05508730    -0.00000001    -0.00000000  0.28D-13  0.87D-14  6  6     2.35
   7      1.24568321    -0.78962041  -268.05508730     0.00000000    -0.00000000  0.47D-15  0.12D-15  6  1     2.68
   8      1.24568321    -0.78962041  -268.05508730     0.00000000    -0.00000000  0.59D-17  0.13D-17  6  2     3.01

 Norm of t1 vector:      0.03893679      S-energy:    -0.00227187      T1 diagnostic:  0.00055045
 Norm of t2 vector:      0.49413271      P-energy:    -0.78734854
                                         Alpha-Beta:  -0.59335061
                                         Alpha-Alpha: -0.10092986
                                         Beta-Beta:   -0.09306807

 Spin contamination <S**2-Sz**2-Sz>     0.00104084
  Reference energy                   -267.265466894604
  RHF-RMP2 correlation energy          -0.789620408371
 !RHF-RMP2 energy                    -268.055087302975

 Starting UCCSD calculation

 ITER.      SQ.NORM     CORR.ENERGY   TOTAL ENERGY   ENERGY CHANGE        DEN1      VAR(S)    VAR(P)  DIIS     TIME
   1      1.26276201    -0.80898289  -268.07444979    -0.80898289    -0.02514898  0.38D-02  0.59D-02  1  1     7.60
   2      1.29152865    -0.83638578  -268.10185268    -0.02740289    -0.00200980  0.22D-03  0.66D-03  2  2    12.18
   3      1.30146469    -0.84088148  -268.10634837    -0.00449570    -0.00032448  0.19D-03  0.56D-04  3  3    16.79
   4      1.30637527    -0.84235780  -268.10782469    -0.00147632    -0.00007206  0.43D-04  0.14D-04  4  4    21.41
   5      1.30910484    -0.84274591  -268.10821281    -0.00038811    -0.00002366  0.19D-04  0.32D-05  5  5    26.05
   6      1.31104330    -0.84295033  -268.10841723    -0.00020442    -0.00000645  0.42D-05  0.12D-05  6  6    30.76
   7      1.31199185    -0.84300908  -268.10847597    -0.00005875    -0.00000208  0.14D-05  0.37D-06  6  2    35.48
   8      1.31243300    -0.84305173  -268.10851862    -0.00004265    -0.00000065  0.45D-06  0.11D-06  6  1    40.18
   9      1.31261813    -0.84305631  -268.10852320    -0.00000458    -0.00000022  0.15D-06  0.35D-07  6  4    44.88
  10      1.31268138    -0.84305924  -268.10852614    -0.00000293    -0.00000005  0.35D-07  0.95D-08  6  3    49.60
  11      1.31271092    -0.84305799  -268.10852488     0.00000125    -0.00000002  0.13D-07  0.28D-08  6  5    54.35
  12      1.31272131    -0.84305773  -268.10852462     0.00000026    -0.00000000  0.26D-08  0.95D-09  6  6    59.09
  13      1.31272017    -0.84305681  -268.10852371     0.00000092    -0.00000000  0.96D-09  0.28D-09  6  2    63.84
  14      1.31271496    -0.84305597  -268.10852286     0.00000085    -0.00000000  0.21D-09  0.67D-10  6  1    68.65
  15      1.31271088    -0.84305538  -268.10852227     0.00000059    -0.00000000  0.78D-10  0.19D-10  6  4    73.42
  16      1.31270770    -0.84305500  -268.10852189     0.00000038    -0.00000000  0.28D-10  0.63D-11  6  3    78.20
  17      1.31270550    -0.84305476  -268.10852165     0.00000024    -0.00000000  0.10D-10  0.24D-11  6  5    82.98
  18      1.31270459    -0.84305470  -268.10852159     0.00000006    -0.00000000  0.41D-11  0.87D-12  6  6    87.77
  19      1.31270398    -0.84305466  -268.10852156     0.00000003    -0.00000000  0.16D-11  0.37D-12  6  2    92.55
  20      1.31270366    -0.84305465  -268.10852155     0.00000001    -0.00000000  0.60D-12  0.13D-12  6  1    97.34
  21      1.31270350    -0.84305464  -268.10852154     0.00000001    -0.00000000  0.28D-12  0.58D-13  6  4   102.14
  22      1.31270338    -0.84305463  -268.10852153     0.00000001    -0.00000000  0.74D-13  0.21D-13  6  3   106.94
  23      1.31270332    -0.84305463  -268.10852153     0.00000000    -0.00000000  0.21D-13  0.63D-14  6  5   111.76
  24      1.31270331    -0.84305463  -268.10852153    -0.00000000    -0.00000000  0.67D-14  0.23D-14  6  6   116.57
  25      1.31270332    -0.84305463  -268.10852153    -0.00000000    -0.00000000  0.21D-14  0.52D-15  6  2   121.36
  26      1.31270333    -0.84305463  -268.10852153    -0.00000000    -0.00000000  0.77D-15  0.15D-15  6  1   126.15
  27      1.31270334    -0.84305463  -268.10852153    -0.00000000    -0.00000000  0.20D-15  0.63D-16  6  3   130.94
  28      1.31270334    -0.84305463  -268.10852153    -0.00000000    -0.00000000  0.30D-16  0.11D-16  6  4   135.73
  29      1.31270334    -0.84305463  -268.10852153    -0.00000000    -0.00000000  0.71D-17  0.29D-17  6  5   140.53
  30      1.31270334    -0.84305463  -268.10852153    -0.00000000    -0.00000000  0.15D-17  0.54D-18  6  6   145.33
  31      1.31270334    -0.84305463  -268.10852153    -0.00000000    -0.00000000  0.35D-18  0.10D-18  6  2   150.15

 Norm of t1 vector:      0.13868479      S-energy:    -0.00282169      T1 diagnostic:  0.01616418
                                                                       D1 diagnostic:  0.06281633
 Norm of t2 vector:      0.54172860      P-energy:    -0.84023294
                                         Alpha-Beta:  -0.66479662
                                         Alpha-Alpha: -0.09146968
                                         Beta-Beta:   -0.08396664

 Spin contamination <S**2-Sz**2-Sz>     0.00217201

 Memory could be reduced to 28.85 Mwords without degradation in triples
 

 RESULTS
 =======

  Reference energy                   -267.265466894604
  UCCSD singles energy                 -0.002821689984
  UCCSD pair energy                    -0.840232944731
  UCCSD correlation energy             -0.843054634715
  Triples (T) contribution             -0.024969983422
  Total correlation energy             -0.868024618137
 
  RHF-UCCSD energy                   -268.108521529319
  RHF-UCCSD[T] energy                -268.134826342604
  RHF-UCCSD-T energy                 -268.133070481856
 !RHF-UCCSD(T) energy                -268.133491512741

 Program statistics:

 Available memory in ccsd:               999997692
 Min. memory needed in ccsd:               7337057
 Max. memory used in ccsd:                10523002
 Max. memory used in cckext:              10867977 (31 integral passes)
 Max. memory used in cckint:              12633073 ( 1 integral passes)



 **********************************************************************************************************************************
 DATASETS  * FILE   NREC   LENGTH (MB)   RECORD NAMES
              1      18        3.17       500      610      700      900      950      970     1000      129      960     1100   
                                          VAR    BASINP    GEOM    SYMINP    ZMAT    AOBASIS   BASIS     P2S    ABASIS      S 
                                         1400     1410     1200     1210     1080     1600     1650     1700   
                                           T        V       H0       H01     AOSYM     SMH    MOLCAS    OPER   

              2       3        0.77       700     1000     2100   
                                         GEOM     BASIS     RHF  

 PROGRAMS   *        TOTAL  UCCSD(T)       RHF       INT
 CPU TIMES  *       189.34    186.81      1.39      1.06
 REAL TIME  *       199.08 SEC
 DISK USED  *         1.30 GB      
 SF USED    *       553.73 MB      
 GA USED    *         0.00 MB       (max)       0.00 MB       (current)
 **********************************************************************************************************************************

        UCCSD(T)        RHF-SCF 
   -268.13349151   -267.26546689
 **********************************************************************************************************************************
 Variable memory released
