
 Primary working directories    : /tmp/320938.789.gen4.q
 Secondary working directories  : /tmp/320938.789.gen4.q
 Wavefunction directory         : /home/vulcan/mel64643/wfu/
 Main file repository           : /tmp/320938.789.gen4.q/

 ARCHNAME  : Linux/x86_64
 FC        : /opt/intel/compilers_and_libraries_2016.1.150/linux/bin/intel64/ifort
 FCVERSION : 16.0.1
 BLASLIB   : -mkl
 id        : ccgc

 Nodes     nprocs
 n046         3
 Number of processes for MPI-2 version of Molpro:   nprocs(total)=    4   nprocs(compute)=    3   nprocs(helper)=    1
 ga_uses_ma=false, calling ma_init with nominal heap.
 GA-space will be limited to   8.0 MW (determined by -G option)

 Using customized tuning parameters: mindgm=10; mindgv=16; mindgc=4; mindgr=1; noblas=0; mincuda=1000; minvec=7
 default implementation of scratch files=sf  

 ***,Frequencies for min3
 memory,1000,m
 gthresh,energy=1.0d-10,orbital=1.0d-10,oneint=1.0d-16,twoint=1.0d-16,optgrad=1.0d-6,compress=1.0d-13
 geomtyp=xyz
 
  geometry = {
  12
  arbitrary comment
     C    1.776964391707    0.711398808326   -0.047331391796
     C    0.491811976407   -0.059338630746   -0.196506267364
     C    0.450236071263   -1.536514950640    0.101473123832
     O   -0.560703746813    0.727092075810    0.254416900230
     O   -1.837824996486    0.092198790419   -0.120526099757
     H    2.585391507233    0.211062308272   -0.611488153833
     H    1.660554467396    1.742557852714   -0.426639745241
     H    2.095198973030    0.773753459962    1.017582670297
     H   -0.502828846719   -1.982872950681   -0.219767541604
     H    1.280672277369   -2.047992749621   -0.417242065062
     H    0.561056791461   -1.719263592095    1.194739719488
     H   -1.988468749563    0.551066541344   -0.967018916873
  }
 
 basis=cc-pvdz
 {rhf;maxit,200}
 {uccsd(t);maxit,200}

 Variables initialized (661), CPU time= 0.00 sec
 Commands  initialized (458), CPU time= 0.01 sec, 486 directives.
 Default parameters read. Elapsed time= 0.06 sec

 Checking input...
 Passed
1


                                         ***  PROGRAM SYSTEM MOLPRO  ***
                         Copyright, University College Cardiff Consultants Limited, 2008

                                    Version 2010.1 linked May 16 2016 07:17:05


 **********************************************************************************************************************************
 LABEL *   Frequencies for min3                                                          
 Linux-4.4.3/n046(x86_64) 64 bit mpp version                                             DATE: 07-Mar-20          TIME: 05:36:35  
 **********************************************************************************************************************************

 SHA1:             9e8077add272b0f3cad6f7df79ec5211205f459d
 **********************************************************************************************************************************

 THRESHOLDS:

 ZERO    =  1.00D-12  ONEINT  =  1.00D-16  TWOINT  =  1.00D-16  PREFAC  =  1.00D-14  LOCALI  =  1.00D-09  EORDER  =  1.00D-04
 ENERGY  =  1.00D-10  ETEST   =  0.00D+00  EDENS   =  0.00D+00  THRDEDEF=  1.00D-06  GRADIENT=  1.00D-02  STEP    =  1.00D-03
 ORBITAL =  1.00D-10  CIVEC   =  1.00D-05  COEFF   =  1.00D-04  PRINTCI =  5.00D-02  PUNCHCI =  9.90D+01  OPTGRAD =  1.00D-06
 OPTENERG=  1.00D-06  OPTSTEP =  3.00D-04  THRGRAD =  1.00D-10  COMPRESS=  1.00D-13  VARMIN  =  1.00D-07  VARMAX  =  1.00D-03
 THRDOUB =  0.00D+00  THRDIV  =  1.00D-05  THRRED  =  1.00D-07  THRPSP  =  1.00D+00  THRDC   =  1.00D-10  THRCS   =  1.00D-10
 THRNRM  =  1.00D-08  THREQ   =  0.00D+00  THRDE   =  1.00D+00  THRREF  =  1.00D-05  SPARFAC =  1.00D+00  THRDLP  =  1.00D-07
 THRDIA  =  1.00D-10  THRDLS  =  1.00D-07  THRGPS  =  0.00D+00  THRKEX  =  0.00D+00  THRDIS  =  2.00D-01  THRVAR  =  1.00D-10
 THRLOC  =  1.00D-06  THRGAP  =  1.00D-06  THRLOCT = -1.00D+00  THRGAPT = -1.00D+00  THRORB  =  1.00D-06  THRMLTP =  0.00D+00
 THRCPQCI=  1.00D-10  KEXTA   =  0.00D+00  THRCOARS=  0.00D+00  SYMTOL  =  1.00D-06  GRADTOL =  1.00D-06  THROVL  =  1.00D-08
 THRORTH =  1.00D-08  GRID    =  1.00D-06  GRIDMAX =  1.00D-03  DTMAX   =  0.00D+00

 SETTING GEOMTYP        =    XYZ

 Variable memory set to 1000000000 words,  buffer space   230000 words

 SETTING BASIS          =    CC-PVDZ


 Recomputing integrals since basis changed


 Using spherical harmonics

 Library entry C      S cc-pVDZ              selected for orbital group  1
 Library entry C      P cc-pVDZ              selected for orbital group  1
 Library entry C      D cc-pVDZ              selected for orbital group  1
 Library entry O      S cc-pVDZ              selected for orbital group  2
 Library entry O      P cc-pVDZ              selected for orbital group  2
 Library entry O      D cc-pVDZ              selected for orbital group  2
 Library entry H      S cc-pVDZ              selected for orbital group  3
 Library entry H      P cc-pVDZ              selected for orbital group  3

1PROGRAM * SEWARD (Integral evaluation for generally contracted gaussian basis sets)     Author: Roland Lindh, 1990

 Geometry written to block  1 of record 700


 Point group  C1  



 ATOMIC COORDINATES

 NR  ATOM    CHARGE       X              Y              Z

   1  C       6.00    3.357976046    1.344348918   -0.089443368
   2  C       6.00    0.929389944   -0.112133761   -0.371343028
   3  C       6.00    0.850822869   -2.903592454    0.191756414
   4  O       8.00   -1.059576522    1.374004896    0.480778265
   5  O       8.00   -3.472985921    0.174230464   -0.227761320
   6  H       1.00    4.885681891    0.398849959   -1.155545143
   7  H       1.00    3.137993170    3.292957110   -0.806232275
   8  H       1.00    3.959352250    1.462182133    1.922952563
   9  H       1.00   -0.950208811   -3.747086830   -0.415300466
  10  H       1.00    2.420119868   -3.870145416   -0.788473233
  11  H       1.00    1.060243680   -3.248937337    2.257730868
  12  H       1.00   -3.757661358    1.041364843   -1.827400917

 Bond lengths in Bohr (Angstrom)

 1-2  2.845846037  1-6  2.089120970  1-7  2.087882346  1-8  2.103633853  2-3  2.848770857
     ( 1.505956863)     ( 1.105515204)     ( 1.104859752)     ( 1.113195091)     ( 1.507504611)

  2- 4  2.625015506   3- 9  2.079354691   3-10  2.087526733   3-11  2.105082091   4- 5  2.786760118
       ( 1.389098379)       ( 1.100347112)       ( 1.104671570)       ( 1.113961466)       ( 1.474689941)

  5-12  1.841686449
       ( 0.974578495)

 Bond angles

  1-2-3  120.36135121   1-2-4  108.94734199   2-1-6  109.99087843   2-1-7  110.71577544

  2- 1- 8  111.55459802   2- 3- 9  111.32586584   2- 3-10  109.88599044   2- 3-11  110.60973260

  2- 4- 5  109.26340169   3- 2- 4  118.01439057   4- 5-12   98.74245497   6- 1- 7  108.91986477

  6- 1- 8  107.72677236   7- 1- 8  107.83409406   9- 3-10  109.03937265   9- 3-11  107.82677970

 10- 3-11  108.06503359

 NUCLEAR CHARGE:                   41
 NUMBER OF PRIMITIVE AOS:         184
 NUMBER OF SYMMETRY AOS:          179
 NUMBER OF CONTRACTIONS:          105   ( 105A   )
 NUMBER OF CORE ORBITALS:           5   (   5A   )
 NUMBER OF VALENCE ORBITALS:       27   (  27A   )


 NUCLEAR REPULSION ENERGY  183.23117297


 Eigenvalues of metric

         1 0.345E-02 0.435E-02 0.105E-01 0.141E-01 0.182E-01 0.214E-01 0.331E-01 0.345E-01


 Contracted 2-electron integrals neglected if value below      1.0D-16
 AO integral compression algorithm  1   Integral accuracy      1.0D-16

     127.664 MB (compressed) written to integral file ( 93.2%)

     Node minimum: 34.341 MB, node maximum: 55.575 MB


 NUMBER OF SORTED TWO-ELECTRON INTEGRALS:    5164320.     BUFFER LENGTH:  32768
 NUMBER OF SEGMENTS:   1  SEGMENT LENGTH:    5164320      RECORD LENGTH: 524288

 Memory used in sort:       5.72 MW

 SORT1 READ    17075548. AND WROTE     5135907. INTEGRALS IN     15 RECORDS. CPU TIME:     0.34 SEC, REAL TIME:     0.40 SEC
 SORT2 READ    15396635. AND WROTE    15487395. INTEGRALS IN    393 RECORDS. CPU TIME:     0.10 SEC, REAL TIME:     0.15 SEC

 Node minimum:     5160610.  Node maximum:     5164320. integrals

 OPERATOR DM      FOR CENTER  0  COORDINATES:    0.000000    0.000000    0.000000


 **********************************************************************************************************************************
 DATASETS  * FILE   NREC   LENGTH (MB)   RECORD NAMES
              1      18        3.17       500      610      700      900      950      970     1000      129      960     1100   
                                          VAR    BASINP    GEOM    SYMINP    ZMAT    AOBASIS   BASIS     P2S    ABASIS      S 
                                         1400     1410     1200     1210     1080     1600     1650     1700   
                                           T        V       H0       H01     AOSYM     SMH    MOLCAS    OPER   

 PROGRAMS   *        TOTAL       INT
 CPU TIMES  *         1.30      1.25
 REAL TIME  *         1.81 SEC
 DISK USED  *       317.28 MB      
 GA USED    *         0.00 MB       (max)       0.00 MB       (current)
 **********************************************************************************************************************************

1PROGRAM * RHF-SCF (OPEN SHELL)       Authors: W. Meyer, H.-J. Werner


 NUMBER OF ELECTRONS:      21+   20-    SPACE SYMMETRY=1    SPIN SYMMETRY: Doublet 
 CONVERGENCE THRESHOLDS:    1.00E-10 (Density)    1.00E-11 (Energy)
 MAX. NUMBER OF ITERATIONS:      200
 INTERPOLATION TYPE:            DIIS
 INTERPOLATION STEPS:              2 (START)      1 (STEP)
 LEVEL SHIFTS:                 -0.30 (CLOSED)  0.00 (OPEN) 



 Orbital guess generated from atomic densities. Full valence occupancy:   32

 Molecular orbital dump at record        2100.2

 ITERATION    DDIFF          GRAD             ENERGY        2-EL.EN.            DIPOLE MOMENTS         DIIS
    1      0.000D+00      0.000D+00      -267.17824798    555.834044    0.57073    0.05149   -0.74939    0
    2      0.000D+00      0.617D-02      -267.24896005    555.755435    0.41340   -0.13023   -0.59871    1
    3      0.928D-02      0.214D-02      -267.26114458    555.673178    0.39292   -0.05850   -0.62618    2
    4      0.336D-02      0.912D-03      -267.26475974    555.825506    0.37811   -0.09878   -0.64260    3
    5      0.186D-02      0.364D-03      -267.26533093    555.796886    0.38059   -0.09235   -0.63561    4
    6      0.793D-03      0.110D-03      -267.26540784    555.783141    0.37883   -0.09216   -0.63836    5
    7      0.278D-03      0.513D-04      -267.26542814    555.780126    0.37811   -0.09190   -0.63786    6
    8      0.144D-03      0.273D-04      -267.26543424    555.778185    0.37838   -0.09202   -0.63808    7
    9      0.927D-04      0.115D-04      -267.26543516    555.778495    0.37857   -0.09198   -0.63783    8
   10      0.367D-04      0.502D-05      -267.26543532    555.779111    0.37883   -0.09199   -0.63790    9
   11      0.147D-04      0.197D-05      -267.26543535    555.778951    0.37888   -0.09198   -0.63790    9
   12      0.652D-05      0.671D-06      -267.26543535    555.779086    0.37890   -0.09198   -0.63790    9
   13      0.227D-05      0.227D-06      -267.26543535    555.779002    0.37890   -0.09199   -0.63790    9
   14      0.632D-06      0.759D-07      -267.26543535    555.779010    0.37890   -0.09199   -0.63790    9
   15      0.193D-06      0.301D-07      -267.26543535    555.779006    0.37890   -0.09199   -0.63790    9
   16      0.827D-07      0.146D-07      -267.26543535    555.779008    0.37890   -0.09199   -0.63790    9
   17      0.376D-07      0.755D-08      -267.26543535    555.779008    0.37890   -0.09199   -0.63790    9
   18      0.224D-07      0.343D-08      -267.26543535    555.779008    0.37890   -0.09199   -0.63790    9
   19      0.115D-07      0.134D-08      -267.26543535    555.779008    0.37890   -0.09199   -0.63790    9
   20      0.444D-08      0.570D-09      -267.26543535    555.779008    0.37890   -0.09199   -0.63790    9
   21      0.167D-08      0.288D-09      -267.26543535    555.779008    0.37890   -0.09199   -0.63790    9
   22      0.760D-09      0.162D-09      -267.26543535    555.779008    0.37890   -0.09199   -0.63790    9
   23      0.448D-09      0.799D-10      -267.26543535    555.779008    0.37890   -0.09199   -0.63790    9
   24      0.264D-09      0.318D-10      -267.26543535    555.779008    0.37890   -0.09199   -0.63790    9
   25      0.936D-10      0.130D-10      -267.26543535    555.779008    0.37890   -0.09199   -0.63790    0

 Final alpha occupancy:  21
 Final beta  occupancy:  20

 !RHF STATE 1.1 Energy               -267.265435350771
 Nuclear energy                       183.23117297
 One-electron energy                 -728.38611231
 Two-electron energy                  277.88950399
 Virial quotient                       -1.00154347
 !RHF STATE 1.1 Dipole moment           0.37890452    -0.09198680    -0.63789698
 Dipole moment /Debye                   0.96301615    -0.23379181    -1.62126620

 Orbital energies:

         1.1          2.1          3.1          4.1          5.1          6.1          7.1          8.1          9.1         10.1
    -20.630486   -20.628882   -11.279225   -11.237837   -11.231910    -1.470236    -1.240840    -1.023150    -0.945435    -0.768583

        11.1         12.1         13.1         14.1         15.1         16.1         17.1         18.1         19.1         20.1
     -0.704621    -0.643097    -0.626771    -0.588898    -0.545161    -0.543390    -0.538998    -0.517053    -0.493097    -0.469783

        21.1         22.1         23.1
     -0.352195     0.181321     0.183507


 **********************************************************************************************************************************
 DATASETS  * FILE   NREC   LENGTH (MB)   RECORD NAMES
              1      18        3.17       500      610      700      900      950      970     1000      129      960     1100   
                                          VAR    BASINP    GEOM    SYMINP    ZMAT    AOBASIS   BASIS     P2S    ABASIS      S 
                                         1400     1410     1200     1210     1080     1600     1650     1700   
                                           T        V       H0       H01     AOSYM     SMH    MOLCAS    OPER   

              2       3        0.77       700     1000     2100   
                                         GEOM     BASIS     RHF  

 PROGRAMS   *        TOTAL       RHF       INT
 CPU TIMES  *         3.07      1.77      1.25
 REAL TIME  *         3.80 SEC
 DISK USED  *       333.85 MB      
 SF USED    *         0.04 MB      
 GA USED    *         0.00 MB       (max)       0.00 MB       (current)
 **********************************************************************************************************************************


1PROGRAM * CCSD (Unrestricted open-shell coupled cluster)     Authors: C. Hampel, H.-J. Werner, 1991, M. Deegan, P.J. Knowles, 1992


 Convergence thresholds:  THRVAR = 1.00D-08  THRDEN = 1.00D-10

 CCSD(T)     terms to be evaluated (factor= 1.000)


 Number of core orbitals:           5 (   5 )
 Number of closed-shell orbitals:  15 (  15 )
 Number of active  orbitals:        1 (   1 )
 Number of external orbitals:      84 (  84 )

 Memory could be reduced to 24.91 Mwords without degradation in triples

 Number of N-1 electron functions:              31
 Number of N-2 electron functions:             465
 Number of singly external CSFs:              2635
 Number of doubly external CSFs:           2537250
 Total number of CSFs:                     2539885

 Molecular orbitals read from record     2100.2  Type=RHF/CANONICAL (state 1.1)

 Integral transformation finished. Total CPU:   1.24 sec, npass=  1  Memory used:  12.63 MW

 Starting RMP2 calculation

 ITER.      SQ.NORM     CORR.ENERGY   TOTAL ENERGY   ENERGY CHANGE        DEN1      VAR(S)    VAR(P)  DIIS     TIME
   1      1.24298898    -0.78633887  -268.05177422    -0.78633887    -0.00304882  0.20D-04  0.11D-02  1  1     1.67
   2      1.24562918    -0.78962678  -268.05506213    -0.00328791    -0.00000474  0.54D-06  0.19D-05  2  2     2.05
   3      1.24569470    -0.78966882  -268.05510417    -0.00004204    -0.00000003  0.16D-07  0.68D-08  3  3     2.44
   4      1.24569565    -0.78966883  -268.05510418    -0.00000000    -0.00000000  0.27D-09  0.38D-10  4  4     2.87
   5      1.24569573    -0.78966886  -268.05510421    -0.00000003    -0.00000000  0.25D-11  0.65D-12  5  5     3.32
   6      1.24569575    -0.78966886  -268.05510422    -0.00000001    -0.00000000  0.28D-13  0.87D-14  6  6     3.81
   7      1.24569575    -0.78966886  -268.05510422     0.00000000    -0.00000000  0.47D-15  0.12D-15  6  1     4.30
   8      1.24569575    -0.78966886  -268.05510422     0.00000000    -0.00000000  0.59D-17  0.13D-17  6  2     4.79

 Norm of t1 vector:      0.03893100      S-energy:    -0.00227154      T1 diagnostic:  0.00055023
 Norm of t2 vector:      0.49414585      P-energy:    -0.78739732
                                         Alpha-Beta:  -0.59338260
                                         Alpha-Alpha: -0.10093849
                                         Beta-Beta:   -0.09307624

 Spin contamination <S**2-Sz**2-Sz>     0.00104050
  Reference energy                   -267.265435350772
  RHF-RMP2 correlation energy          -0.789668864436
 !RHF-RMP2 energy                    -268.055104215208

 Starting UCCSD calculation

 ITER.      SQ.NORM     CORR.ENERGY   TOTAL ENERGY   ENERGY CHANGE        DEN1      VAR(S)    VAR(P)  DIIS     TIME
   1      1.26275935    -0.80901420  -268.07444955    -0.80901420    -0.02515058  0.38D-02  0.59D-02  1  1    12.43
   2      1.29152362    -0.83641760  -268.10185295    -0.02740340    -0.00201026  0.22D-03  0.66D-03  2  2    20.01
   3      1.30146101    -0.84091372  -268.10634907    -0.00449612    -0.00032460  0.19D-03  0.56D-04  3  3    27.80
   4      1.30637457    -0.84239044  -268.10782579    -0.00147672    -0.00007213  0.43D-04  0.14D-04  4  4    35.56
   5      1.30910705    -0.84277874  -268.10821409    -0.00038831    -0.00002370  0.19D-04  0.32D-05  5  5    42.79
   6      1.31104961    -0.84298346  -268.10841881    -0.00020472    -0.00000647  0.42D-05  0.12D-05  6  6    49.08
   7      1.31200134    -0.84304238  -268.10847773    -0.00005892    -0.00000209  0.14D-05  0.37D-06  6  2    54.58
   8      1.31244437    -0.84308514  -268.10852049    -0.00004276    -0.00000066  0.45D-06  0.11D-06  6  1    60.05
   9      1.31263060    -0.84308976  -268.10852511    -0.00000462    -0.00000022  0.15D-06  0.35D-07  6  4    65.52
  10      1.31269411    -0.84309269  -268.10852804    -0.00000293    -0.00000005  0.35D-07  0.96D-08  6  3    71.02
  11      1.31272378    -0.84309144  -268.10852679     0.00000125    -0.00000002  0.13D-07  0.28D-08  6  5    76.48
  12      1.31273423    -0.84309119  -268.10852654     0.00000026    -0.00000000  0.26D-08  0.96D-09  6  6    81.97
  13      1.31273308    -0.84309027  -268.10852562     0.00000092    -0.00000000  0.96D-09  0.29D-09  6  2    87.47
  14      1.31272786    -0.84308942  -268.10852477     0.00000085    -0.00000000  0.21D-09  0.68D-10  6  1    92.93
  15      1.31272377    -0.84308883  -268.10852418     0.00000059    -0.00000000  0.78D-10  0.19D-10  6  4    98.41
  16      1.31272058    -0.84308845  -268.10852380     0.00000038    -0.00000000  0.28D-10  0.63D-11  6  3   103.92
  17      1.31271837    -0.84308821  -268.10852356     0.00000024    -0.00000000  0.10D-10  0.24D-11  6  5   109.43
  18      1.31271746    -0.84308815  -268.10852350     0.00000006    -0.00000000  0.41D-11  0.87D-12  6  6   115.05
  19      1.31271685    -0.84308812  -268.10852347     0.00000003    -0.00000000  0.16D-11  0.37D-12  6  2   121.15
  20      1.31271653    -0.84308810  -268.10852346     0.00000001    -0.00000000  0.60D-12  0.13D-12  6  1   128.88
  21      1.31271637    -0.84308809  -268.10852344     0.00000001    -0.00000000  0.28D-12  0.58D-13  6  4   136.74
  22      1.31271624    -0.84308809  -268.10852344     0.00000001    -0.00000000  0.74D-13  0.22D-13  6  3   144.67
  23      1.31271619    -0.84308808  -268.10852343     0.00000000    -0.00000000  0.22D-13  0.63D-14  6  5   151.66
  24      1.31271618    -0.84308808  -268.10852343    -0.00000000    -0.00000000  0.68D-14  0.23D-14  6  6   157.97
  25      1.31271618    -0.84308808  -268.10852344    -0.00000000    -0.00000000  0.21D-14  0.53D-15  6  2   164.40
  26      1.31271619    -0.84308809  -268.10852344    -0.00000000    -0.00000000  0.77D-15  0.15D-15  6  1   170.86
  27      1.31271620    -0.84308809  -268.10852344    -0.00000000    -0.00000000  0.20D-15  0.63D-16  6  3   177.32
  28      1.31271620    -0.84308809  -268.10852344    -0.00000000    -0.00000000  0.30D-16  0.11D-16  6  4   183.78
  29      1.31271621    -0.84308809  -268.10852344    -0.00000000    -0.00000000  0.71D-17  0.29D-17  6  5   190.56
  30      1.31271621    -0.84308809  -268.10852344    -0.00000000    -0.00000000  0.15D-17  0.54D-18  6  6   197.71
  31      1.31271621    -0.84308809  -268.10852344    -0.00000000    -0.00000000  0.36D-18  0.11D-18  6  2   205.48

 Norm of t1 vector:      0.13874444      S-energy:    -0.00282122      T1 diagnostic:  0.01617215
                                                                       D1 diagnostic:  0.06281256
 Norm of t2 vector:      0.54172520      P-energy:    -0.84026687
                                         Alpha-Beta:  -0.66482251
                                         Alpha-Alpha: -0.09147438
                                         Beta-Beta:   -0.08396998

 Spin contamination <S**2-Sz**2-Sz>     0.00217684

 Memory could be reduced to 28.85 Mwords without degradation in triples
 

 RESULTS
 =======

  Reference energy                   -267.265435350772
  UCCSD singles energy                 -0.002821221269
  UCCSD pair energy                    -0.840266865543
  UCCSD correlation energy             -0.843088086812
  Triples (T) contribution             -0.024970621880
  Total correlation energy             -0.868058708692
 
  RHF-UCCSD energy                   -268.108523437584
  RHF-UCCSD[T] energy                -268.134829411931
  RHF-UCCSD-T energy                 -268.133072927437
 !RHF-UCCSD(T) energy                -268.133494059464

 Program statistics:

 Available memory in ccsd:               999997692
 Min. memory needed in ccsd:               7337057
 Max. memory used in ccsd:                10523002
 Max. memory used in cckext:              10867977 (31 integral passes)
 Max. memory used in cckint:              12633073 ( 1 integral passes)



 **********************************************************************************************************************************
 DATASETS  * FILE   NREC   LENGTH (MB)   RECORD NAMES
              1      18        3.17       500      610      700      900      950      970     1000      129      960     1100   
                                          VAR    BASINP    GEOM    SYMINP    ZMAT    AOBASIS   BASIS     P2S    ABASIS      S 
                                         1400     1410     1200     1210     1080     1600     1650     1700   
                                           T        V       H0       H01     AOSYM     SMH    MOLCAS    OPER   

              2       3        0.77       700     1000     2100   
                                         GEOM     BASIS     RHF  

 PROGRAMS   *        TOTAL  UCCSD(T)       RHF       INT
 CPU TIMES  *       259.97    256.90      1.77      1.25
 REAL TIME  *       277.64 SEC
 DISK USED  *         1.30 GB      
 SF USED    *       553.73 MB      
 GA USED    *         0.00 MB       (max)       0.00 MB       (current)
 **********************************************************************************************************************************

        UCCSD(T)        RHF-SCF 
   -268.13349406   -267.26543535
 **********************************************************************************************************************************
 Variable memory released
