
 Primary working directories    : /tmp/320938.253.gen4.q
 Secondary working directories  : /tmp/320938.253.gen4.q
 Wavefunction directory         : /home/vulcan/mel64643/wfu/
 Main file repository           : /tmp/320938.253.gen4.q/

 ARCHNAME  : Linux/x86_64
 FC        : /opt/intel/compilers_and_libraries_2016.1.150/linux/bin/intel64/ifort
 FCVERSION : 16.0.1
 BLASLIB   : -mkl
 id        : ccgc

 Nodes     nprocs
 n065         3
 Number of processes for MPI-2 version of Molpro:   nprocs(total)=    4   nprocs(compute)=    3   nprocs(helper)=    1
 ga_uses_ma=false, calling ma_init with nominal heap.
 GA-space will be limited to   8.0 MW (determined by -G option)

 Using customized tuning parameters: mindgm=10; mindgv=16; mindgc=4; mindgr=1; noblas=0; mincuda=1000; minvec=7
 default implementation of scratch files=sf  

 ***,Frequencies for min3
 memory,1000,m
 gthresh,energy=1.0d-10,orbital=1.0d-10,oneint=1.0d-16,twoint=1.0d-16,optgrad=1.0d-6,compress=1.0d-13
 geomtyp=xyz
 
  geometry = {
  12
  arbitrary comment
     C    1.776964391707    0.711398808326   -0.047331391796
     C    0.491811976407   -0.059992870174   -0.195858138425
     C    0.450334595838   -1.536294104051    0.101225781021
     O   -0.560740969492    0.727246358156    0.254257222591
     O   -1.837861720730    0.092262278029   -0.120321520687
     H    2.585552919912    0.211346140532   -0.611710388632
     H    1.660525135095    1.742802004659   -0.427487487320
     H    2.094705341504    0.774295126124    1.017074271114
     H   -0.504814169435   -1.982834661437   -0.220978195239
     H    1.282023360331   -2.047291999557   -0.417387411673
     H    0.561324260992   -1.718895547924    1.194177982298
     H   -1.987739952105    0.550593974553   -0.969007513427
  }
 
 basis=cc-pvdz
 {rhf;maxit,200}
 {uccsd(t);maxit,200}

 Variables initialized (661), CPU time= 0.00 sec
 Commands  initialized (458), CPU time= 0.00 sec, 486 directives.
 Default parameters read. Elapsed time= 0.05 sec

 Checking input...
 Passed
1


                                         ***  PROGRAM SYSTEM MOLPRO  ***
                         Copyright, University College Cardiff Consultants Limited, 2008

                                    Version 2010.1 linked May 16 2016 07:17:05


 **********************************************************************************************************************************
 LABEL *   Frequencies for min3                                                          
 Linux-4.4.3/n065(x86_64) 64 bit mpp version                                             DATE: 07-Mar-20          TIME: 02:26:35  
 **********************************************************************************************************************************

 SHA1:             9e8077add272b0f3cad6f7df79ec5211205f459d
 **********************************************************************************************************************************

 THRESHOLDS:

 ZERO    =  1.00D-12  ONEINT  =  1.00D-16  TWOINT  =  1.00D-16  PREFAC  =  1.00D-14  LOCALI  =  1.00D-09  EORDER  =  1.00D-04
 ENERGY  =  1.00D-10  ETEST   =  0.00D+00  EDENS   =  0.00D+00  THRDEDEF=  1.00D-06  GRADIENT=  1.00D-02  STEP    =  1.00D-03
 ORBITAL =  1.00D-10  CIVEC   =  1.00D-05  COEFF   =  1.00D-04  PRINTCI =  5.00D-02  PUNCHCI =  9.90D+01  OPTGRAD =  1.00D-06
 OPTENERG=  1.00D-06  OPTSTEP =  3.00D-04  THRGRAD =  1.00D-10  COMPRESS=  1.00D-13  VARMIN  =  1.00D-07  VARMAX  =  1.00D-03
 THRDOUB =  0.00D+00  THRDIV  =  1.00D-05  THRRED  =  1.00D-07  THRPSP  =  1.00D+00  THRDC   =  1.00D-10  THRCS   =  1.00D-10
 THRNRM  =  1.00D-08  THREQ   =  0.00D+00  THRDE   =  1.00D+00  THRREF  =  1.00D-05  SPARFAC =  1.00D+00  THRDLP  =  1.00D-07
 THRDIA  =  1.00D-10  THRDLS  =  1.00D-07  THRGPS  =  0.00D+00  THRKEX  =  0.00D+00  THRDIS  =  2.00D-01  THRVAR  =  1.00D-10
 THRLOC  =  1.00D-06  THRGAP  =  1.00D-06  THRLOCT = -1.00D+00  THRGAPT = -1.00D+00  THRORB  =  1.00D-06  THRMLTP =  0.00D+00
 THRCPQCI=  1.00D-10  KEXTA   =  0.00D+00  THRCOARS=  0.00D+00  SYMTOL  =  1.00D-06  GRADTOL =  1.00D-06  THROVL  =  1.00D-08
 THRORTH =  1.00D-08  GRID    =  1.00D-06  GRIDMAX =  1.00D-03  DTMAX   =  0.00D+00

 SETTING GEOMTYP        =    XYZ

 Variable memory set to 1000000000 words,  buffer space   230000 words

 SETTING BASIS          =    CC-PVDZ


 Recomputing integrals since basis changed


 Using spherical harmonics

 Library entry C      S cc-pVDZ              selected for orbital group  1
 Library entry C      P cc-pVDZ              selected for orbital group  1
 Library entry C      D cc-pVDZ              selected for orbital group  1
 Library entry O      S cc-pVDZ              selected for orbital group  2
 Library entry O      P cc-pVDZ              selected for orbital group  2
 Library entry O      D cc-pVDZ              selected for orbital group  2
 Library entry H      S cc-pVDZ              selected for orbital group  3
 Library entry H      P cc-pVDZ              selected for orbital group  3

1PROGRAM * SEWARD (Integral evaluation for generally contracted gaussian basis sets)     Author: Roland Lindh, 1990

 Geometry written to block  1 of record 700


 Point group  C1  



 ATOMIC COORDINATES

 NR  ATOM    CHARGE       X              Y              Z

   1  C       6.00    3.357976046    1.344348918   -0.089443368
   2  C       6.00    0.929389944   -0.113370094   -0.370118242
   3  C       6.00    0.851009054   -2.903175114    0.191289004
   4  O       8.00   -1.059646863    1.374296447    0.480476518
   5  O       8.00   -3.473055320    0.174350438   -0.227374722
   6  H       1.00    4.885986917    0.399386325   -1.155965106
   7  H       1.00    3.137937740    3.293418490   -0.807834276
   8  H       1.00    3.958419421    1.463205733    1.921991828
   9  H       1.00   -0.953960527   -3.747014474   -0.417588270
  10  H       1.00    2.422673045   -3.868821190   -0.788747899
  11  H       1.00    1.060749124   -3.248241834    2.256669339
  12  H       1.00   -3.756284130    1.040471822   -1.831158820

 Bond lengths in Bohr (Angstrom)

 1-2  2.846357946  1-6  2.089315712  1-7  2.088869204  1-8  2.102505823  2-3  2.846811147
     ( 1.506227754)     ( 1.105618257)     ( 1.105381975)     ( 1.112598163)     ( 1.506467577)

  2- 4  2.625439126   3- 9  2.083437445   3-10  2.088796873   3-11  2.104485179   4- 5  2.786658246
       ( 1.389322549)       ( 1.102507612)       ( 1.105343699)       ( 1.113645593)       ( 1.474636033)

  5-12  1.844588909
       ( 0.976114411)

 Bond angles

  1-2-3  120.39278627   1-2-4  108.92100283   2-1-6  110.00099219   2-1-7  110.73641986

  2- 1- 8  111.52806178   2- 3- 9  111.29269758   2- 3-10  109.86454436   2- 3-11  110.57793474

  2- 4- 5  109.25880091   3- 2- 4  118.06926981   4- 5-12   98.72223428   6- 1- 7  108.87452632

  6- 1- 8  107.76182168   7- 1- 8  107.83955082   9- 3-10  109.11701392   9- 3-11  107.86336853

 10- 3-11  108.03982810

 NUCLEAR CHARGE:                   41
 NUMBER OF PRIMITIVE AOS:         184
 NUMBER OF SYMMETRY AOS:          179
 NUMBER OF CONTRACTIONS:          105   ( 105A   )
 NUMBER OF CORE ORBITALS:           5   (   5A   )
 NUMBER OF VALENCE ORBITALS:       27   (  27A   )


 NUCLEAR REPULSION ENERGY  183.22238903


 Eigenvalues of metric

         1 0.345E-02 0.435E-02 0.105E-01 0.141E-01 0.182E-01 0.214E-01 0.331E-01 0.345E-01


 Contracted 2-electron integrals neglected if value below      1.0D-16
 AO integral compression algorithm  1   Integral accuracy      1.0D-16

     127.402 MB (compressed) written to integral file ( 93.4%)

     Node minimum: 40.632 MB, node maximum: 44.040 MB


 NUMBER OF SORTED TWO-ELECTRON INTEGRALS:    5164320.     BUFFER LENGTH:  32768
 NUMBER OF SEGMENTS:   1  SEGMENT LENGTH:    5164320      RECORD LENGTH: 524288

 Memory used in sort:       5.72 MW

 SORT1 READ    17075251. AND WROTE     5135905. INTEGRALS IN     15 RECORDS. CPU TIME:     0.21 SEC, REAL TIME:     0.25 SEC
 SORT2 READ    15396643. AND WROTE    15487395. INTEGRALS IN    489 RECORDS. CPU TIME:     0.07 SEC, REAL TIME:     0.10 SEC

 Node minimum:     5160610.  Node maximum:     5164320. integrals

 OPERATOR DM      FOR CENTER  0  COORDINATES:    0.000000    0.000000    0.000000


 **********************************************************************************************************************************
 DATASETS  * FILE   NREC   LENGTH (MB)   RECORD NAMES
              1      18        3.17       500      610      700      900      950      970     1000      129      960     1100   
                                          VAR    BASINP    GEOM    SYMINP    ZMAT    AOBASIS   BASIS     P2S    ABASIS      S 
                                         1400     1410     1200     1210     1080     1600     1650     1700   
                                           T        V       H0       H01     AOSYM     SMH    MOLCAS    OPER   

 PROGRAMS   *        TOTAL       INT
 CPU TIMES  *         0.92      0.88
 REAL TIME  *         1.38 SEC
 DISK USED  *       305.70 MB      
 GA USED    *         0.00 MB       (max)       0.00 MB       (current)
 **********************************************************************************************************************************

1PROGRAM * RHF-SCF (OPEN SHELL)       Authors: W. Meyer, H.-J. Werner


 NUMBER OF ELECTRONS:      21+   20-    SPACE SYMMETRY=1    SPIN SYMMETRY: Doublet 
 CONVERGENCE THRESHOLDS:    1.00E-10 (Density)    1.00E-11 (Energy)
 MAX. NUMBER OF ITERATIONS:      200
 INTERPOLATION TYPE:            DIIS
 INTERPOLATION STEPS:              2 (START)      1 (STEP)
 LEVEL SHIFTS:                 -0.30 (CLOSED)  0.00 (OPEN) 



 Orbital guess generated from atomic densities. Full valence occupancy:   32

 Molecular orbital dump at record        2100.2

 ITERATION    DDIFF          GRAD             ENERGY        2-EL.EN.            DIPOLE MOMENTS         DIIS
    1      0.000D+00      0.000D+00      -267.17819223    555.826357    0.56929    0.04906   -0.75242    0
    2      0.000D+00      0.617D-02      -267.24885330    555.743280    0.41342   -0.13126   -0.60039    1
    3      0.927D-02      0.214D-02      -267.26102622    555.662007    0.39319   -0.05948   -0.62742    2
    4      0.336D-02      0.912D-03      -267.26463319    555.813794    0.37867   -0.09968   -0.64348    3
    5      0.186D-02      0.364D-03      -267.26520306    555.785068    0.38127   -0.09320   -0.63637    4
    6      0.793D-03      0.110D-03      -267.26527980    555.771292    0.37956   -0.09301   -0.63907    5
    7      0.278D-03      0.512D-04      -267.26530001    555.768283    0.37888   -0.09276   -0.63855    6
    8      0.144D-03      0.273D-04      -267.26530610    555.766323    0.37916   -0.09287   -0.63876    7
    9      0.926D-04      0.115D-04      -267.26530702    555.766648    0.37935   -0.09283   -0.63851    8
   10      0.366D-04      0.501D-05      -267.26530717    555.767259    0.37961   -0.09284   -0.63858    9
   11      0.146D-04      0.197D-05      -267.26530720    555.767101    0.37966   -0.09284   -0.63859    9
   12      0.651D-05      0.671D-06      -267.26530720    555.767236    0.37968   -0.09284   -0.63858    9
   13      0.227D-05      0.226D-06      -267.26530720    555.767151    0.37968   -0.09284   -0.63858    9
   14      0.632D-06      0.757D-07      -267.26530720    555.767160    0.37968   -0.09284   -0.63858    9
   15      0.192D-06      0.300D-07      -267.26530720    555.767156    0.37968   -0.09284   -0.63858    9
   16      0.824D-07      0.145D-07      -267.26530720    555.767158    0.37968   -0.09284   -0.63858    9
   17      0.372D-07      0.749D-08      -267.26530720    555.767158    0.37968   -0.09284   -0.63858    9
   18      0.222D-07      0.341D-08      -267.26530720    555.767158    0.37968   -0.09284   -0.63858    9
   19      0.114D-07      0.133D-08      -267.26530720    555.767158    0.37968   -0.09284   -0.63858    9
   20      0.444D-08      0.566D-09      -267.26530720    555.767158    0.37968   -0.09284   -0.63858    9
   21      0.165D-08      0.286D-09      -267.26530720    555.767158    0.37968   -0.09284   -0.63858    9
   22      0.751D-09      0.161D-09      -267.26530720    555.767158    0.37968   -0.09284   -0.63858    9
   23      0.445D-09      0.793D-10      -267.26530720    555.767158    0.37968   -0.09284   -0.63858    9
   24      0.263D-09      0.315D-10      -267.26530720    555.767158    0.37968   -0.09284   -0.63858    9
   25      0.929D-10      0.129D-10      -267.26530720    555.767158    0.37968   -0.09284   -0.63858    0

 Final alpha occupancy:  21
 Final beta  occupancy:  20

 !RHF STATE 1.1 Energy               -267.265307201974
 Nuclear energy                       183.22238903
 One-electron energy                 -728.37127506
 Two-electron energy                  277.88357883
 Virial quotient                       -1.00156233
 !RHF STATE 1.1 Dipole moment           0.37968324    -0.09284134    -0.63858060
 Dipole moment /Debye                   0.96499533    -0.23596369    -1.62300368

 Orbital energies:

         1.1          2.1          3.1          4.1          5.1          6.1          7.1          8.1          9.1         10.1
    -20.630436   -20.628985   -11.279134   -11.237851   -11.232162    -1.470051    -1.240472    -1.023204    -0.945348    -0.768403

        11.1         12.1         13.1         14.1         15.1         16.1         17.1         18.1         19.1         20.1
     -0.704303    -0.642991    -0.626766    -0.588826    -0.545096    -0.543319    -0.539086    -0.516851    -0.493006    -0.469761

        21.1         22.1         23.1
     -0.352017     0.181112     0.183464


 **********************************************************************************************************************************
 DATASETS  * FILE   NREC   LENGTH (MB)   RECORD NAMES
              1      18        3.17       500      610      700      900      950      970     1000      129      960     1100   
                                          VAR    BASINP    GEOM    SYMINP    ZMAT    AOBASIS   BASIS     P2S    ABASIS      S 
                                         1400     1410     1200     1210     1080     1600     1650     1700   
                                           T        V       H0       H01     AOSYM     SMH    MOLCAS    OPER   

              2       3        0.77       700     1000     2100   
                                         GEOM     BASIS     RHF  

 PROGRAMS   *        TOTAL       RHF       INT
 CPU TIMES  *         2.01      1.09      0.88
 REAL TIME  *         2.63 SEC
 DISK USED  *       322.27 MB      
 SF USED    *         0.04 MB      
 GA USED    *         0.00 MB       (max)       0.00 MB       (current)
 **********************************************************************************************************************************


1PROGRAM * CCSD (Unrestricted open-shell coupled cluster)     Authors: C. Hampel, H.-J. Werner, 1991, M. Deegan, P.J. Knowles, 1992


 Convergence thresholds:  THRVAR = 1.00D-08  THRDEN = 1.00D-10

 CCSD(T)     terms to be evaluated (factor= 1.000)


 Number of core orbitals:           5 (   5 )
 Number of closed-shell orbitals:  15 (  15 )
 Number of active  orbitals:        1 (   1 )
 Number of external orbitals:      84 (  84 )

 Memory could be reduced to 24.91 Mwords without degradation in triples

 Number of N-1 electron functions:              31
 Number of N-2 electron functions:             465
 Number of singly external CSFs:              2635
 Number of doubly external CSFs:           2537250
 Total number of CSFs:                     2539885

 Molecular orbitals read from record     2100.2  Type=RHF/CANONICAL (state 1.1)

 Integral transformation finished. Total CPU:   0.93 sec, npass=  1  Memory used:  12.63 MW

 Starting RMP2 calculation

 ITER.      SQ.NORM     CORR.ENERGY   TOTAL ENERGY   ENERGY CHANGE        DEN1      VAR(S)    VAR(P)  DIIS     TIME
   1      1.24308062    -0.78645984  -268.05176704    -0.78645984    -0.00305028  0.20D-04  0.11D-02  1  1     1.26
   2      1.24572254    -0.78974935  -268.05505655    -0.00328951    -0.00000474  0.54D-06  0.19D-05  2  2     1.56
   3      1.24578806    -0.78979140  -268.05509860    -0.00004205    -0.00000003  0.16D-07  0.68D-08  3  3     1.89
   4      1.24578901    -0.78979140  -268.05509860    -0.00000000    -0.00000000  0.27D-09  0.38D-10  4  4     2.25
   5      1.24578910    -0.78979143  -268.05509863    -0.00000003    -0.00000000  0.25D-11  0.65D-12  5  5     2.64
   6      1.24578911    -0.78979144  -268.05509864    -0.00000001    -0.00000000  0.28D-13  0.86D-14  6  6     3.05
   7      1.24578911    -0.78979144  -268.05509864     0.00000000    -0.00000000  0.47D-15  0.12D-15  6  1     3.45
   8      1.24578911    -0.78979144  -268.05509864     0.00000000    -0.00000000  0.60D-17  0.13D-17  6  2     3.87

 Norm of t1 vector:      0.03894723      S-energy:    -0.00227357      T1 diagnostic:  0.00054995
 Norm of t2 vector:      0.49423903      P-energy:    -0.78751787
                                         Alpha-Beta:  -0.59347628
                                         Alpha-Alpha: -0.10095245
                                         Beta-Beta:   -0.09308913

 Spin contamination <S**2-Sz**2-Sz>     0.00104044
  Reference energy                   -267.265307201974
  RHF-RMP2 correlation energy          -0.789791438397
 !RHF-RMP2 energy                    -268.055098640370

 Starting UCCSD calculation

 ITER.      SQ.NORM     CORR.ENERGY   TOTAL ENERGY   ENERGY CHANGE        DEN1      VAR(S)    VAR(P)  DIIS     TIME
   1      1.26284756    -0.80911500  -268.07442220    -0.80911500    -0.02516229  0.38D-02  0.59D-02  1  1     9.25
   2      1.29163106    -0.83653045  -268.10183765    -0.02741545    -0.00201217  0.22D-03  0.66D-03  2  2    14.61
   3      1.30157760    -0.84103106  -268.10633826    -0.00450061    -0.00032472  0.19D-03  0.56D-04  3  3    19.98
   4      1.30649319    -0.84250889  -268.10781609    -0.00147783    -0.00007210  0.43D-04  0.14D-04  4  4    25.42
   5      1.30922334    -0.84289699  -268.10820419    -0.00038810    -0.00002369  0.19D-04  0.32D-05  5  5    30.88
   6      1.31116361    -0.84310152  -268.10840872    -0.00020452    -0.00000647  0.42D-05  0.12D-05  6  6    36.43
   7      1.31211470    -0.84316038  -268.10846759    -0.00005887    -0.00000209  0.14D-05  0.37D-06  6  2    41.90
   8      1.31255786    -0.84320315  -268.10851035    -0.00004277    -0.00000066  0.45D-06  0.11D-06  6  1    47.36
   9      1.31274414    -0.84320778  -268.10851498    -0.00000462    -0.00000022  0.15D-06  0.35D-07  6  4    52.83
  10      1.31280770    -0.84321072  -268.10851792    -0.00000294    -0.00000005  0.35D-07  0.96D-08  6  3    58.26
  11      1.31283736    -0.84320946  -268.10851667     0.00000125    -0.00000002  0.13D-07  0.28D-08  6  5    63.77
  12      1.31284780    -0.84320920  -268.10851641     0.00000026    -0.00000000  0.26D-08  0.96D-09  6  6    69.27
  13      1.31284665    -0.84320829  -268.10851549     0.00000092    -0.00000000  0.96D-09  0.29D-09  6  2    74.73
  14      1.31284143    -0.84320744  -268.10851464     0.00000085    -0.00000000  0.21D-09  0.68D-10  6  1    80.22
  15      1.31283735    -0.84320685  -268.10851405     0.00000059    -0.00000000  0.78D-10  0.19D-10  6  4    85.69
  16      1.31283416    -0.84320647  -268.10851367     0.00000038    -0.00000000  0.28D-10  0.63D-11  6  3    91.18
  17      1.31283195    -0.84320623  -268.10851343     0.00000024    -0.00000000  0.10D-10  0.24D-11  6  5    96.62
  18      1.31283105    -0.84320617  -268.10851337     0.00000006    -0.00000000  0.41D-11  0.87D-12  6  6   102.05
  19      1.31283044    -0.84320613  -268.10851334     0.00000003    -0.00000000  0.16D-11  0.37D-12  6  2   107.50
  20      1.31283011    -0.84320612  -268.10851332     0.00000001    -0.00000000  0.60D-12  0.13D-12  6  1   112.95
  21      1.31282995    -0.84320611  -268.10851331     0.00000001    -0.00000000  0.28D-12  0.58D-13  6  4   118.41
  22      1.31282983    -0.84320610  -268.10851330     0.00000001    -0.00000000  0.74D-13  0.21D-13  6  3   123.89
  23      1.31282977    -0.84320610  -268.10851330     0.00000000    -0.00000000  0.21D-13  0.63D-14  6  5   129.36
  24      1.31282976    -0.84320610  -268.10851330    -0.00000000    -0.00000000  0.68D-14  0.23D-14  6  6   134.83
  25      1.31282977    -0.84320610  -268.10851330    -0.00000000    -0.00000000  0.21D-14  0.53D-15  6  2   140.38
  26      1.31282977    -0.84320610  -268.10851330    -0.00000000    -0.00000000  0.77D-15  0.15D-15  6  1   145.85
  27      1.31282978    -0.84320610  -268.10851331    -0.00000000    -0.00000000  0.20D-15  0.63D-16  6  3   151.32
  28      1.31282979    -0.84320610  -268.10851331    -0.00000000    -0.00000000  0.30D-16  0.11D-16  6  4   156.82
  29      1.31282979    -0.84320610  -268.10851331    -0.00000000    -0.00000000  0.71D-17  0.29D-17  6  5   162.29
  30      1.31282979    -0.84320610  -268.10851331    -0.00000000    -0.00000000  0.15D-17  0.54D-18  6  6   167.73
  31      1.31282979    -0.84320610  -268.10851331    -0.00000000    -0.00000000  0.36D-18  0.10D-18  6  2   173.28

 Norm of t1 vector:      0.13875226      S-energy:    -0.00282343      T1 diagnostic:  0.01617285
                                                                       D1 diagnostic:  0.06279058
 Norm of t2 vector:      0.54182802      P-energy:    -0.84038267
                                         Alpha-Beta:  -0.66492953
                                         Alpha-Alpha: -0.09147915
                                         Beta-Beta:   -0.08397399

 Spin contamination <S**2-Sz**2-Sz>     0.00217469

 Memory could be reduced to 28.85 Mwords without degradation in triples
 

 RESULTS
 =======

  Reference energy                   -267.265307201974
  UCCSD singles energy                 -0.002823431307
  UCCSD pair energy                    -0.840382672597
  UCCSD correlation energy             -0.843206103904
  Triples (T) contribution             -0.024980991193
  Total correlation energy             -0.868187095098
 
  RHF-UCCSD energy                   -268.108513305878
  RHF-UCCSD[T] energy                -268.134830569817
  RHF-UCCSD-T energy                 -268.133072644157
 !RHF-UCCSD(T) energy                -268.133494297071

 Program statistics:

 Available memory in ccsd:               999997692
 Min. memory needed in ccsd:               7337057
 Max. memory used in ccsd:                10523002
 Max. memory used in cckext:              10867977 (31 integral passes)
 Max. memory used in cckint:              12633073 ( 1 integral passes)



 **********************************************************************************************************************************
 DATASETS  * FILE   NREC   LENGTH (MB)   RECORD NAMES
              1      18        3.17       500      610      700      900      950      970     1000      129      960     1100   
                                          VAR    BASINP    GEOM    SYMINP    ZMAT    AOBASIS   BASIS     P2S    ABASIS      S 
                                         1400     1410     1200     1210     1080     1600     1650     1700   
                                           T        V       H0       H01     AOSYM     SMH    MOLCAS    OPER   

              2       3        0.77       700     1000     2100   
                                         GEOM     BASIS     RHF  

 PROGRAMS   *        TOTAL  UCCSD(T)       RHF       INT
 CPU TIMES  *       221.23    219.22      1.09      0.88
 REAL TIME  *       242.42 SEC
 DISK USED  *         1.29 GB      
 SF USED    *       553.73 MB      
 GA USED    *         0.00 MB       (max)       0.00 MB       (current)
 **********************************************************************************************************************************

        UCCSD(T)        RHF-SCF 
   -268.13349430   -267.26530720
 **********************************************************************************************************************************
 Variable memory released
