
    -----------------------------------------------------------------------
          Psi4: An Open-Source Ab Initio Electronic Structure Package
                               Psi4 1.4a2.dev478 

                         Git: Rev {master} f722895 dirty


    R. M. Parrish, L. A. Burns, D. G. A. Smith, A. C. Simmonett,
    A. E. DePrince III, E. G. Hohenstein, U. Bozkaya, A. Yu. Sokolov,
    R. Di Remigio, R. M. Richard, J. F. Gonthier, A. M. James,
    H. R. McAlexander, A. Kumar, M. Saitow, X. Wang, B. P. Pritchard,
    P. Verma, H. F. Schaefer III, K. Patkowski, R. A. King, E. F. Valeev,
    F. A. Evangelista, J. M. Turney, T. D. Crawford, and C. D. Sherrill,
    J. Chem. Theory Comput. 13(7) pp 3185--3197 (2017).
    (doi: 10.1021/acs.jctc.7b00174)


                         Additional Contributions by
    P. Kraus, H. Kruse, M. H. Lechner, M. C. Schieber, R. A. Shaw,
    A. Alenaizan, R. Galvelis, Z. L. Glick, S. Lehtola, and J. P. Misiewicz

    -----------------------------------------------------------------------


    Psi4 started on: Monday, 08 June 2020 03:02PM

    Process ID: 32708
    Host:       n048
    PSIDATADIR: /opt/psi/4/master/share/psi4
    Memory:     500.0 MiB
    Threads:    4
    
  ==> Input File <==

--------------------------------------------------------------------------
set memory 40Gb

molecule {
    C   -1.174143750690   -0.774963495581   -0.000122054786
    H   -1.619161817890   -1.211058947381   -0.891063737386
    H   -1.619236641990   -1.211251475481    0.890686519114
    C   -1.174259935390    0.774782497019    0.000039298714
    H   -1.619408715490    1.210812725519    0.890946481514
    H   -1.619363714790    1.211001803819   -0.890797846286
    C    0.352842188210    0.922279063619    0.000099395014
    H    0.838764338910    1.892384604019    0.000209357714
    O    0.767400551710   -0.000070836064   -1.027272604431
    C    0.352853120878   -0.921997655077   -0.000144874618
    H    0.840357188099   -1.891309550546   -0.001728277952
    O    0.767343169143   -0.000040987705    1.027478920358
}

set {
    e_convergence 10
    d_convergence 10
    freeze_core True
    basis_guess True
    cc_type conv
    maxiter 300
}

E = energy('mp2/heavy-aug-cc-pV(Q+d)Z')
psi4.print_out("\n========================OPTAVC-XTPL==========================\n\n")
psi4.print_out("MP2/QZ correlation energy {}\n".format(variable("MP2 CORRELATION ENERGY")))
psi4.print_out("SCF/QZ reference energy {}\n".format(variable("CURRENT REFERENCE ENERGY")))
psi4.print_out("\n\n=============================================================\n")

E = energy('mp2/heavy-aug-cc-pV(T+d)Z')
psi4.print_out("\n========================OPTAVC-XTPL==========================\n\n")
psi4.print_out("MP2/TZ correlation energy {}".format(variable("MP2 CORRELATION ENERGY")))
psi4.print_out("\n\n=============================================================\n")
--------------------------------------------------------------------------

Scratch directory: /tmp/

Scratch directory: /tmp/
    SCF Algorithm Type (re)set to DF.

*** tstart() called on n048
*** at Mon Jun  8 15:02:35 2020


  //>>>>>>>>>>>>>>>>>>>>>>>>>>>>>>>>>>>//
  //      Guess SCF, pcseg-0 Basis     //
  //<<<<<<<<<<<<<<<<<<<<<<<<<<<<<<<<<<<//

   => Loading Basis Set <=

    Name: PCSEG-0
    Role: ORBITAL
    Keyword: BASIS
    atoms 1, 4, 7, 10     entry C          line    71 file /opt/psi/4/master/share/psi4/basis/pcseg-0.gbs 
    atoms 2-3, 5-6, 8, 11 entry H          line    13 file /opt/psi/4/master/share/psi4/basis/pcseg-0.gbs 
    atoms 9, 12           entry O          line   103 file /opt/psi/4/master/share/psi4/basis/pcseg-0.gbs 


         ---------------------------------------------------------
                           SCF Castup computation                  
         ---------------------------------------------------------
                                   SCF
               by Justin Turney, Rob Parrish, Andy Simmonett
                          and Daniel G. A. Smith
                              RHF Reference
                        4 Threads,    500 MiB Core
         ---------------------------------------------------------

  ==> Geometry <==

    Molecular point group: c1
    Full point group: C1

    Geometry (in Angstrom), charge = 0, multiplicity = 1:

       Center              X                  Y                   Z               Mass       
    ------------   -----------------  -----------------  -----------------  -----------------
         C           -1.174143750690    -0.774963495581    -0.000122054786    12.000000000000
         H           -1.619161817890    -1.211058947381    -0.891063737386     1.007825032230
         H           -1.619236641990    -1.211251475481     0.890686519114     1.007825032230
         C           -1.174259935390     0.774782497019     0.000039298714    12.000000000000
         H           -1.619408715490     1.210812725519     0.890946481514     1.007825032230
         H           -1.619363714790     1.211001803819    -0.890797846286     1.007825032230
         C            0.352842188210     0.922279063619     0.000099395014    12.000000000000
         H            0.838764338910     1.892384604019     0.000209357714     1.007825032230
         O            0.767400551710    -0.000070836064    -1.027272604431    15.994914619570
         C            0.352853120878    -0.921997655077    -0.000144874618    12.000000000000
         H            0.840357188099    -1.891309550546    -0.001728277952     1.007825032230
         O            0.767343169143    -0.000040987705     1.027478920358    15.994914619570

  Running in c1 symmetry.

  Rotational constants: A =      0.19854  B =      0.16229  C =      0.14678 [cm^-1]
  Rotational constants: A =   5951.96155  B =   4865.42167  C =   4400.27392 [MHz]
  Nuclear repulsion =  257.016235921416751

  Charge       = 0
  Multiplicity = 1
  Electrons    = 46
  Nalpha       = 23
  Nbeta        = 23

  ==> Algorithm <==

  SCF Algorithm Type is DF.
  DIIS enabled.
  MOM disabled.
  Fractional occupation disabled.
  Guess Type is SAD.
  Energy threshold   = 1.00e-10
  Density threshold  = 1.00e-10
  Integral threshold = 0.00e+00

  ==> Primary Basis <==

  Basis Set: PCSEG-0
    Blend: PCSEG-0
    Number of shells: 42
    Number of basis function: 66
    Number of Cartesian functions: 66
    Spherical Harmonics?: true
    Max angular momentum: 1

   => Loading Basis Set <=

    Name: (PCSEG-0 AUX)
    Role: JKFIT
    Keyword: DF_BASIS_SCF
    atoms 1, 4, 7, 10     entry C          line   198 file /opt/psi/4/master/share/psi4/basis/def2-universal-jkfit.gbs 
    atoms 2-3, 5-6, 8, 11 entry H          line    18 file /opt/psi/4/master/share/psi4/basis/def2-universal-jkfit.gbs 
    atoms 9, 12           entry O          line   318 file /opt/psi/4/master/share/psi4/basis/def2-universal-jkfit.gbs 

  ==> Integral Setup <==

  ==> DiskDFJK: Density-Fitted J/K Matrices <==

    J tasked:                  Yes
    K tasked:                  Yes
    wK tasked:                  No
    OpenMP threads:              4
    Integrals threads:           4
    Memory [MiB]:              375
    Algorithm:                Core
    Integral Cache:           NONE
    Schwarz Cutoff:          1E-12
    Fitting Condition:       1E-10

   => Auxiliary Basis Set <=

  Basis Set: (PCSEG-0 AUX)
    Blend: DEF2-UNIVERSAL-JKFIT
    Number of shells: 186
    Number of basis function: 562
    Number of Cartesian functions: 662
    Spherical Harmonics?: true
    Max angular momentum: 4

  Minimum eigenvalue in the overlap matrix is 1.2851193340E-03.
  Reciprocal condition number of the overlap matrix is 2.1225206921E-04.
    Using symmetric orthogonalization.

  ==> Pre-Iterations <==

  SCF Guess: Superposition of Atomic Densities via on-the-fly atomic UHF (no occupation information).

   -------------------------
    Irrep   Nso     Nmo    
   -------------------------
     A         66      66 
   -------------------------
    Total      66      66
   -------------------------

  ==> Iterations <==

                           Total Energy        Delta E     RMS |[F,P]|

   @DF-RHF iter SAD:  -303.69670657988513   -3.03697e+02   0.00000e+00 
   @DF-RHF iter   1:  -303.56573654637759    1.30970e-01   7.23974e-03 DIIS
   @DF-RHF iter   2:  -303.66476321370891   -9.90267e-02   3.96873e-03 DIIS
   @DF-RHF iter   3:  -303.69037308290774   -2.56099e-02   6.19783e-04 DIIS
   @DF-RHF iter   4:  -303.69155796290357   -1.18488e-03   1.96383e-04 DIIS
   @DF-RHF iter   5:  -303.69165366193573   -9.56990e-05   4.10509e-05 DIIS
   @DF-RHF iter   6:  -303.69166124905780   -7.58712e-06   8.37785e-06 DIIS
   @DF-RHF iter   7:  -303.69166165173664   -4.02679e-07   1.68858e-06 DIIS
   @DF-RHF iter   8:  -303.69166166584927   -1.41126e-08   5.42609e-07 DIIS
   @DF-RHF iter   9:  -303.69166166726922   -1.41995e-09   1.10000e-07 DIIS
   @DF-RHF iter  10:  -303.69166166734522   -7.59997e-11   2.41418e-08 DIIS
   @DF-RHF iter  11:  -303.69166166734772   -2.50111e-12   1.19244e-08 DIIS
   @DF-RHF iter  12:  -303.69166166734817   -4.54747e-13   2.02523e-09 DIIS
   @DF-RHF iter  13:  -303.69166166734800    1.70530e-13   2.23822e-10 DIIS
   @DF-RHF iter  14:  -303.69166166734828   -2.84217e-13   8.29875e-11 DIIS
  Energy and wave function converged.


  ==> Post-Iterations <==

    Orbital Energies [Eh]
    ---------------------

    Doubly Occupied:                                                      

       1A    -20.584507     2A    -20.584440     3A    -11.369639  
       4A    -11.369559     5A    -11.256171     6A    -11.255774  
       7A     -1.537607     8A     -1.312996     9A     -1.091839  
      10A     -1.008923    11A     -0.821943    12A     -0.790159  
      13A     -0.768292    14A     -0.680688    15A     -0.662981  
      16A     -0.658516    17A     -0.552268    18A     -0.534506  
      19A     -0.527383    20A     -0.524503    21A     -0.519503  
      22A     -0.467028    23A     -0.443284  

    Virtual:                                                              

      24A      0.203069    25A      0.231181    26A      0.236133  
      27A      0.242170    28A      0.253207    29A      0.267340  
      30A      0.314370    31A      0.350186    32A      0.351010  
      33A      0.382149    34A      0.406878    35A      0.464639  
      36A      0.570329    37A      0.796452    38A      0.808105  
      39A      0.820784    40A      0.925810    41A      0.932765  
      42A      0.946992    43A      0.949916    44A      1.003364  
      45A      1.004939    46A      1.030124    47A      1.060589  
      48A      1.072120    49A      1.134135    50A      1.148911  
      51A      1.170447    52A      1.173924    53A      1.210851  
      54A      1.237875    55A      1.424606    56A      1.454678  
      57A      1.482536    58A      1.522017    59A      1.690721  
      60A      1.705529    61A      1.927952    62A      1.951162  
      63A      2.140081    64A      2.299125    65A      2.375007  
      66A      2.441215  

    Final Occupation by Irrep:
              A 
    DOCC [    23 ]

  @DF-RHF Final Energy:  -303.69166166734828

   => Energetics <=

    Nuclear Repulsion Energy =            257.0162359214167509
    One-Electron Energy =                -922.7707714487221438
    Two-Electron Energy =                 362.0628738599571079
    Total Energy =                       -303.6916616673482849

Computation Completed

  //>>>>>>>>>>>>>>>>>>>>>>>>>>>>>>>>>>>//
  //                SCF                //
  //<<<<<<<<<<<<<<<<<<<<<<<<<<<<<<<<<<<//

   => Loading Basis Set <=

    Name: HEAVY-AUG-CC-PV(Q+D)Z
    Role: ORBITAL
    Keyword: BASIS
    atoms 1, 4, 7, 10     entry C          line   333 file /opt/psi/4/master/share/psi4/basis/heavy-aug-cc-pv_qpd_z.gbs 
    atoms 2-3, 5-6, 8, 11 entry H          line    86 file /opt/psi/4/master/share/psi4/basis/heavy-aug-cc-pv_qpd_z.gbs 
    atoms 9, 12           entry O          line   453 file /opt/psi/4/master/share/psi4/basis/heavy-aug-cc-pv_qpd_z.gbs 


         ---------------------------------------------------------
                                   SCF
               by Justin Turney, Rob Parrish, Andy Simmonett
                          and Daniel G. A. Smith
                              RHF Reference
                        4 Threads,    500 MiB Core
         ---------------------------------------------------------

  ==> Geometry <==

    Molecular point group: c1
    Full point group: C1

    Geometry (in Angstrom), charge = 0, multiplicity = 1:

       Center              X                  Y                   Z               Mass       
    ------------   -----------------  -----------------  -----------------  -----------------
         C           -1.174143750690    -0.774963495581    -0.000122054786    12.000000000000
         H           -1.619161817890    -1.211058947381    -0.891063737386     1.007825032230
         H           -1.619236641990    -1.211251475481     0.890686519114     1.007825032230
         C           -1.174259935390     0.774782497019     0.000039298714    12.000000000000
         H           -1.619408715490     1.210812725519     0.890946481514     1.007825032230
         H           -1.619363714790     1.211001803819    -0.890797846286     1.007825032230
         C            0.352842188210     0.922279063619     0.000099395014    12.000000000000
         H            0.838764338910     1.892384604019     0.000209357714     1.007825032230
         O            0.767400551710    -0.000070836064    -1.027272604431    15.994914619570
         C            0.352853120878    -0.921997655077    -0.000144874618    12.000000000000
         H            0.840357188099    -1.891309550546    -0.001728277952     1.007825032230
         O            0.767343169143    -0.000040987705     1.027478920358    15.994914619570

  Running in c1 symmetry.

  Rotational constants: A =      0.19854  B =      0.16229  C =      0.14678 [cm^-1]
  Rotational constants: A =   5951.96155  B =   4865.42167  C =   4400.27392 [MHz]
  Nuclear repulsion =  257.016235921416751

  Charge       = 0
  Multiplicity = 1
  Electrons    = 46
  Nalpha       = 23
  Nbeta        = 23

  ==> Algorithm <==

  SCF Algorithm Type is DF.
  DIIS enabled.
  MOM disabled.
  Fractional occupation disabled.
  Guess Type is SAD.
  Energy threshold   = 1.00e-10
  Density threshold  = 1.00e-10
  Integral threshold = 0.00e+00

  ==> Primary Basis <==

  Basis Set: HEAVY-AUG-CC-PV(Q+D)Z
    Blend: HEAVY-AUG-CC-PV(Q+D)Z
    Number of shells: 180
    Number of basis function: 660
    Number of Cartesian functions: 840
    Spherical Harmonics?: true
    Max angular momentum: 4

   => Loading Basis Set <=

    Name: (HEAVY-AUG-CC-PV(Q+D)Z AUX)
    Role: JKFIT
    Keyword: DF_BASIS_SCF
    atoms 1, 4, 7, 10     entry C          line   214 file /opt/psi/4/master/share/psi4/basis/heavy-aug-cc-pvqz-jkfit.gbs 
    atoms 2-3, 5-6, 8, 11 entry H          line   116 file /opt/psi/4/master/share/psi4/basis/heavy-aug-cc-pvqz-jkfit.gbs 
    atoms 9, 12           entry O          line   354 file /opt/psi/4/master/share/psi4/basis/heavy-aug-cc-pvqz-jkfit.gbs 


  Computing basis projection from PCSEG-0 to HEAVY-AUG-CC-PV(Q+D)Z

  ==> Integral Setup <==

  ==> DiskDFJK: Density-Fitted J/K Matrices <==

    J tasked:                  Yes
    K tasked:                  Yes
    wK tasked:                  No
    OpenMP threads:              4
    Integrals threads:           4
    Memory [MiB]:              375
    Algorithm:                Disk
    Integral Cache:           NONE
    Schwarz Cutoff:          1E-12
    Fitting Condition:       1E-10

   => Auxiliary Basis Set <=

  Basis Set: (HEAVY-AUG-CC-PV(Q+D)Z AUX)
    Blend: HEAVY-AUG-CC-PVQZ-JKFIT
    Number of shells: 282
    Number of basis function: 1158
    Number of Cartesian functions: 1584
    Spherical Harmonics?: true
    Max angular momentum: 5

  Minimum eigenvalue in the overlap matrix is 1.0919503667E-06.
  Reciprocal condition number of the overlap matrix is 7.0020563674E-08.
    Using symmetric orthogonalization.

  ==> Pre-Iterations <==

  SCF Guess: Orbitals guess was supplied from a previous computation.

   -------------------------
    Irrep   Nso     Nmo    
   -------------------------
     A        660     660 
   -------------------------
    Total     660     660
   -------------------------

  ==> Iterations <==

                           Total Energy        Delta E     RMS |[F,P]|

   @DF-RHF iter   0:  -304.22236787922856   -3.04222e+02   4.48103e-03 
   @DF-RHF iter   1:  -304.73371719166596   -5.11349e-01   3.36639e-04 DIIS
   @DF-RHF iter   2:  -304.74975180905233   -1.60346e-02   1.53720e-04 DIIS
   @DF-RHF iter   3:  -304.75362650071560   -3.87469e-03   2.81253e-05 DIIS
   @DF-RHF iter   4:  -304.75390360937456   -2.77109e-04   8.46437e-06 DIIS
   @DF-RHF iter   5:  -304.75392591422548   -2.23049e-05   3.57939e-06 DIIS
   @DF-RHF iter   6:  -304.75392972560485   -3.81138e-06   8.40782e-07 DIIS
   @DF-RHF iter   7:  -304.75393003461124   -3.09006e-07   1.79517e-07 DIIS
   @DF-RHF iter   8:  -304.75393004968146   -1.50702e-08   4.58123e-08 DIIS
   @DF-RHF iter   9:  -304.75393005077473   -1.09327e-09   1.49255e-08 DIIS
   @DF-RHF iter  10:  -304.75393005086278   -8.80505e-11   3.82647e-09 DIIS
   @DF-RHF iter  11:  -304.75393005086846   -5.68434e-12   9.83519e-10 DIIS
   @DF-RHF iter  12:  -304.75393005086931   -8.52651e-13   2.90750e-10 DIIS
   @DF-RHF iter  13:  -304.75393005087000   -6.82121e-13   8.72748e-11 DIIS
  Energy and wave function converged.


  ==> Post-Iterations <==

    Orbital Energies [Eh]
    ---------------------

    Doubly Occupied:                                                      

       1A    -20.565162     2A    -20.565114     3A    -11.348563  
       4A    -11.348473     5A    -11.236640     6A    -11.236072  
       7A     -1.490872     8A     -1.292235     9A     -1.067461  
      10A     -0.987935    11A     -0.810323    12A     -0.789501  
      13A     -0.746607    14A     -0.672471    15A     -0.651328  
      16A     -0.646571    17A     -0.534214    18A     -0.524573  
      19A     -0.519543    20A     -0.512200    21A     -0.510126  
      22A     -0.459722    23A     -0.433729  

    Virtual:                                                              

      24A      0.041405    25A      0.042856    26A      0.050669  
      27A      0.062624    28A      0.063926    29A      0.079823  
      30A      0.080144    31A      0.083437    32A      0.101424  
      33A      0.110249    34A      0.111674    35A      0.112246  
      36A      0.139347    37A      0.151641    38A      0.166292  
      39A      0.171441    40A      0.178466    41A      0.178827  
      42A      0.188841    43A      0.188982    44A      0.199071  
      45A      0.207271    46A      0.226480    47A      0.227222  
      48A      0.229633    49A      0.257241    50A      0.260914  
      51A      0.270279    52A      0.270851    53A      0.271823  
      54A      0.286583    55A      0.288153    56A      0.291050  
      57A      0.301100    58A      0.316685    59A      0.320019  
      60A      0.325043    61A      0.333739    62A      0.337644  
      63A      0.355704    64A      0.358177    65A      0.369558  
      66A      0.380985    67A      0.388154    68A      0.389567  
      69A      0.391540    70A      0.391724    71A      0.395735  
      72A      0.398876    73A      0.412333    74A      0.420395  
      75A      0.420645    76A      0.440306    77A      0.453045  
      78A      0.456254    79A      0.462716    80A      0.495055  
      81A      0.515268    82A      0.518923    83A      0.522830  
      84A      0.528486    85A      0.550794    86A      0.571896  
      87A      0.574246    88A      0.585327    89A      0.589224  
      90A      0.598567    91A      0.600130    92A      0.613236  
      93A      0.629206    94A      0.641303    95A      0.653823  
      96A      0.660000    97A      0.684920    98A      0.689022  
      99A      0.695833   100A      0.704762   101A      0.716161  
     102A      0.716675   103A      0.732385   104A      0.743495  
     105A      0.757795   106A      0.764549   107A      0.790029  
     108A      0.790371   109A      0.794274   110A      0.795503  
     111A      0.827256   112A      0.832091   113A      0.833124  
     114A      0.849313   115A      0.860880   116A      0.875711  
     117A      0.884481   118A      0.897047   119A      0.920062  
     120A      0.938732   121A      0.947588   122A      0.957863  
     123A      0.961255   124A      0.988470   125A      1.002289  
     126A      1.010162   127A      1.011354   128A      1.015980  
     129A      1.034079   130A      1.035432   131A      1.046726  
     132A      1.062558   133A      1.070042   134A      1.075674  
     135A      1.096381   136A      1.114648   137A      1.128857  
     138A      1.140221   139A      1.155046   140A      1.159090  
     141A      1.160291   142A      1.166404   143A      1.168869  
     144A      1.175930   145A      1.191281   146A      1.198176  
     147A      1.208959   148A      1.222024   149A      1.229422  
     150A      1.234589   151A      1.238476   152A      1.239530  
     153A      1.244994   154A      1.276418   155A      1.276897  
     156A      1.287892   157A      1.288063   158A      1.306471  
     159A      1.314811   160A      1.327808   161A      1.370767  
     162A      1.371173   163A      1.408090   164A      1.409031  
     165A      1.437147   166A      1.442670   167A      1.458914  
     168A      1.469910   169A      1.474852   170A      1.485594  
     171A      1.491281   172A      1.508461   173A      1.525380  
     174A      1.534806   175A      1.544085   176A      1.593315  
     177A      1.594320   178A      1.618352   179A      1.620330  
     180A      1.625565   181A      1.626496   182A      1.647978  
     183A      1.682803   184A      1.687551   185A      1.699239  
     186A      1.723615   187A      1.728376   188A      1.730989  
     189A      1.757394   190A      1.775912   191A      1.776261  
     192A      1.815186   193A      1.865666   194A      1.870797  
     195A      1.885997   196A      1.901051   197A      1.912096  
     198A      1.923855   199A      1.960990   200A      1.968469  
     201A      1.996925   202A      1.997301   203A      2.018169  
     204A      2.026476   205A      2.026598   206A      2.028342  
     207A      2.032949   208A      2.039783   209A      2.044131  
     210A      2.106895   211A      2.116328   212A      2.125234  
     213A      2.141979   214A      2.143538   215A      2.174064  
     216A      2.187933   217A      2.188114   218A      2.209202  
     219A      2.249157   220A      2.258618   221A      2.265917  
     222A      2.293588   223A      2.293665   224A      2.306557  
     225A      2.335916   226A      2.341548   227A      2.359112  
     228A      2.363404   229A      2.366652   230A      2.373411  
     231A      2.389288   232A      2.395754   233A      2.403138  
     234A      2.418774   235A      2.441392   236A      2.442583  
     237A      2.462854   238A      2.485280   239A      2.492473  
     240A      2.517386   241A      2.526286   242A      2.533229  
     243A      2.548418   244A      2.560093   245A      2.584315  
     246A      2.587483   247A      2.621235   248A      2.626459  
     249A      2.633872   250A      2.645123   251A      2.660594  
     252A      2.682534   253A      2.705957   254A      2.714217  
     255A      2.729230   256A      2.730958   257A      2.751149  
     258A      2.763550   259A      2.764085   260A      2.801653  
     261A      2.803274   262A      2.812182   263A      2.832230  
     264A      2.858025   265A      2.866461   266A      2.918942  
     267A      2.935314   268A      2.940897   269A      2.966665  
     270A      2.974897   271A      2.986834   272A      2.986924  
     273A      3.009454   274A      3.031459   275A      3.041820  
     276A      3.048584   277A      3.074934   278A      3.076437  
     279A      3.084189   280A      3.103916   281A      3.110036  
     282A      3.136637   283A      3.142928   284A      3.153360  
     285A      3.170045   286A      3.187406   287A      3.222946  
     288A      3.247858   289A      3.259525   290A      3.268198  
     291A      3.288157   292A      3.292931   293A      3.320149  
     294A      3.362854   295A      3.367233   296A      3.394823  
     297A      3.398161   298A      3.402787   299A      3.431185  
     300A      3.452884   301A      3.464776   302A      3.474425  
     303A      3.501717   304A      3.524008   305A      3.535896  
     306A      3.549383   307A      3.572057   308A      3.598568  
     309A      3.609845   310A      3.618381   311A      3.635990  
     312A      3.661452   313A      3.690994   314A      3.707135  
     315A      3.716751   316A      3.746717   317A      3.752367  
     318A      3.757336   319A      3.805447   320A      3.834655  
     321A      3.843338   322A      3.844126   323A      3.872902  
     324A      3.908167   325A      3.909556   326A      3.917190  
     327A      3.950265   328A      3.963057   329A      3.982006  
     330A      4.040185   331A      4.041371   332A      4.048236  
     333A      4.060841   334A      4.085085   335A      4.099268  
     336A      4.119931   337A      4.134549   338A      4.157055  
     339A      4.173015   340A      4.202986   341A      4.206123  
     342A      4.217708   343A      4.238110   344A      4.244888  
     345A      4.273310   346A      4.292688   347A      4.317421  
     348A      4.331847   349A      4.336685   350A      4.357287  
     351A      4.406281   352A      4.426882   353A      4.439738  
     354A      4.451867   355A      4.459723   356A      4.489457  
     357A      4.497734   358A      4.511970   359A      4.517394  
     360A      4.541212   361A      4.568849   362A      4.594080  
     363A      4.627606   364A      4.652560   365A      4.669734  
     366A      4.691571   367A      4.697153   368A      4.698359  
     369A      4.718418   370A      4.736650   371A      4.749820  
     372A      4.761460   373A      4.787697   374A      4.823609  
     375A      4.823787   376A      4.826335   377A      4.844131  
     378A      4.846285   379A      4.901100   380A      4.942295  
     381A      4.976839   382A      5.000610   383A      5.000841  
     384A      5.021505   385A      5.058923   386A      5.122437  
     387A      5.154857   388A      5.164330   389A      5.182906  
     390A      5.237161   391A      5.244763   392A      5.253081  
     393A      5.277047   394A      5.289730   395A      5.304935  
     396A      5.342088   397A      5.357986   398A      5.374734  
     399A      5.407362   400A      5.488924   401A      5.512995  
     402A      5.555337   403A      5.582613   404A      5.627107  
     405A      5.646670   406A      5.649219   407A      5.669255  
     408A      5.782318   409A      5.821498   410A      5.828892  
     411A      5.837368   412A      5.898005   413A      5.973208  
     414A      6.030770   415A      6.102368   416A      6.137847  
     417A      6.193077   418A      6.214470   419A      6.227619  
     420A      6.236737   421A      6.292774   422A      6.335481  
     423A      6.338298   424A      6.345890   425A      6.366740  
     426A      6.398344   427A      6.417631   428A      6.459013  
     429A      6.490683   430A      6.495712   431A      6.511412  
     432A      6.520246   433A      6.530714   434A      6.576951  
     435A      6.586730   436A      6.612279   437A      6.638591  
     438A      6.643619   439A      6.656774   440A      6.679883  
     441A      6.700090   442A      6.700392   443A      6.717417  
     444A      6.748371   445A      6.765919   446A      6.781923  
     447A      6.814555   448A      6.820077   449A      6.855524  
     450A      6.885112   451A      6.912907   452A      6.915416  
     453A      6.921231   454A      6.925730   455A      6.938072  
     456A      6.976551   457A      6.988716   458A      7.010978  
     459A      7.039940   460A      7.092737   461A      7.101195  
     462A      7.104851   463A      7.134809   464A      7.152721  
     465A      7.179306   466A      7.194269   467A      7.195731  
     468A      7.219362   469A      7.222130   470A      7.249245  
     471A      7.276792   472A      7.304175   473A      7.352592  
     474A      7.359760   475A      7.366571   476A      7.418256  
     477A      7.430099   478A      7.437274   479A      7.469138  
     480A      7.528877   481A      7.541179   482A      7.584047  
     483A      7.600299   484A      7.604412   485A      7.635555  
     486A      7.707389   487A      7.730663   488A      7.741418  
     489A      7.751490   490A      7.783018   491A      7.802327  
     492A      7.833095   493A      7.841127   494A      7.843224  
     495A      7.917572   496A      7.936606   497A      7.943024  
     498A      7.986931   499A      7.996199   500A      8.014275  
     501A      8.015045   502A      8.042300   503A      8.084292  
     504A      8.105027   505A      8.146076   506A      8.155015  
     507A      8.190967   508A      8.192910   509A      8.322287  
     510A      8.326305   511A      8.334970   512A      8.351637  
     513A      8.378240   514A      8.407898   515A      8.412633  
     516A      8.478097   517A      8.496293   518A      8.497539  
     519A      8.532020   520A      8.551872   521A      8.558425  
     522A      8.586651   523A      8.609757   524A      8.610945  
     525A      8.649816   526A      8.686851   527A      8.707121  
     528A      8.715731   529A      8.762515   530A      8.813922  
     531A      8.825715   532A      8.837484   533A      8.840826  
     534A      8.841124   535A      8.879566   536A      8.900045  
     537A      8.903866   538A      8.936598   539A      8.957425  
     540A      8.993518   541A      9.015974   542A      9.027532  
     543A      9.033455   544A      9.048108   545A      9.055731  
     546A      9.085481   547A      9.109385   548A      9.117377  
     549A      9.171384   550A      9.176631   551A      9.189414  
     552A      9.233904   553A      9.248578   554A      9.314978  
     555A      9.343783   556A      9.351070   557A      9.351399  
     558A      9.366101   559A      9.400660   560A      9.453408  
     561A      9.497850   562A      9.513294   563A      9.525809  
     564A      9.556973   565A      9.648807   566A      9.658588  
     567A      9.727139   568A      9.755016   569A      9.769284  
     570A      9.790109   571A      9.834449   572A      9.899745  
     573A      9.919664   574A      9.931274   575A      9.959326  
     576A     10.067788   577A     10.117003   578A     10.232991  
     579A     10.242927   580A     10.255389   581A     10.294055  
     582A     10.416938   583A     10.477514   584A     10.506954  
     585A     10.508116   586A     10.593192   587A     10.627819  
     588A     10.642866   589A     10.779797   590A     10.793867  
     591A     10.823172   592A     10.826077   593A     10.971372  
     594A     11.001032   595A     11.064012   596A     11.071956  
     597A     11.101688   598A     11.105973   599A     11.130823  
     600A     11.152982   601A     11.162333   602A     11.210030  
     603A     11.225705   604A     11.251757   605A     11.334321  
     606A     11.384059   607A     11.451266   608A     11.455146  
     609A     11.494615   610A     11.498624   611A     11.508272  
     612A     11.542626   613A     11.619920   614A     11.644870  
     615A     11.721861   616A     11.813753   617A     11.820165  
     618A     11.847551   619A     11.885342   620A     11.908191  
     621A     12.198750   622A     12.253939   623A     12.316638  
     624A     12.378303   625A     12.640928   626A     12.651341  
     627A     12.825325   628A     12.869925   629A     12.964790  
     630A     13.028232   631A     13.075697   632A     13.075783  
     633A     13.183154   634A     13.239200   635A     13.255036  
     636A     13.354450   637A     13.357358   638A     13.386120  
     639A     13.421506   640A     13.512382   641A     13.523099  
     642A     13.532917   643A     13.718267   644A     13.737086  
     645A     13.789374   646A     13.813649   647A     13.846822  
     648A     13.908813   649A     13.968917   650A     13.979474  
     651A     14.123361   652A     14.155290   653A     14.690535  
     654A     14.884210   655A     27.255492   656A     27.850389  
     657A     28.044012   658A     28.610575   659A     44.797326  
     660A     45.696326  

    Final Occupation by Irrep:
              A 
    DOCC [    23 ]

  @DF-RHF Final Energy:  -304.75393005087000

   => Energetics <=

    Nuclear Repulsion Energy =            257.0162359214167509
    One-Electron Energy =                -925.6414599773303280
    Two-Electron Energy =                 363.8712940050435805
    Total Energy =                       -304.7539300508699966

Computation Completed


Properties will be evaluated at   0.000000,   0.000000,   0.000000 [a0]

Properties computed using the SCF density matrix

  Nuclear Dipole Moment: [e a0]
     X:    -4.4907      Y:     0.0005      Z:    -0.0016

  Electronic Dipole Moment: [e a0]
     X:     3.7186      Y:     0.0001      Z:     0.0011

  Dipole Moment: [e a0]
     X:    -0.7720      Y:     0.0007      Z:    -0.0005     Total:     0.7720

  Dipole Moment: [D]
     X:    -1.9623      Y:     0.0017      Z:    -0.0012     Total:     1.9623


*** tstop() called on n048 at Mon Jun  8 15:03:21 2020
Module time:
	user time   =     169.55 seconds =       2.83 minutes
	system time =       6.85 seconds =       0.11 minutes
	total time  =         46 seconds =       0.77 minutes
Total time:
	user time   =     169.55 seconds =       2.83 minutes
	system time =       6.85 seconds =       0.11 minutes
	total time  =         46 seconds =       0.77 minutes

*** tstart() called on n048
*** at Mon Jun  8 15:03:21 2020


  //>>>>>>>>>>>>>>>>>>>>>>>>>>>>>>>>>>>//
  //               DFMP2               //
  //<<<<<<<<<<<<<<<<<<<<<<<<<<<<<<<<<<<//

   => Loading Basis Set <=

    Name: (HEAVY-AUG-CC-PV(Q+D)Z AUX)
    Role: RIFIT
    Keyword: DF_BASIS_MP2
    atoms 1, 4, 7, 10     entry C          line   180 file /opt/psi/4/master/share/psi4/basis/heavy-aug-cc-pvqz-ri.gbs 
    atoms 2-3, 5-6, 8, 11 entry H          line    44 file /opt/psi/4/master/share/psi4/basis/heavy-aug-cc-pvqz-ri.gbs 
    atoms 9, 12           entry O          line   328 file /opt/psi/4/master/share/psi4/basis/heavy-aug-cc-pvqz-ri.gbs 

	 --------------------------------------------------------
	                          DF-MP2                         
	      2nd-Order Density-Fitted Moller-Plesset Theory     
	              RMP2 Wavefunction,   4 Threads             
	                                                         
	        Rob Parrish, Justin Turney, Andy Simmonett,      
	           Ed Hohenstein, and C. David Sherrill          
	 --------------------------------------------------------

   => Auxiliary Basis Set <=

  Basis Set: (HEAVY-AUG-CC-PV(Q+D)Z AUX)
    Blend: HEAVY-AUG-CC-PVQZ-RI
    Number of shells: 306
    Number of basis function: 1338
    Number of Cartesian functions: 1842
    Spherical Harmonics?: true
    Max angular momentum: 5

	 --------------------------------------------------------
	                 NBF =   660, NAUX =  1338
	 --------------------------------------------------------
	   CLASS    FOCC     OCC    AOCC    AVIR     VIR    FVIR
	   PAIRS       6      23      17     637     637       0
	 --------------------------------------------------------

	-----------------------------------------------------------
	 ==================> DF-MP2 Energies <==================== 
	-----------------------------------------------------------
	 Reference Energy          =    -304.7539300508699966 [Eh]
	 Singles Energy            =      -0.0000000000000000 [Eh]
	 Same-Spin Energy          =      -0.2941272914003973 [Eh]
	 Opposite-Spin Energy      =      -0.9238393194253200 [Eh]
	 Correlation Energy        =      -1.2179666108257172 [Eh]
	 Total Energy              =    -305.9718966616957232 [Eh]
	-----------------------------------------------------------
	 ================> DF-SCS-MP2 Energies <================== 
	-----------------------------------------------------------
	 SCS Same-Spin Scale       =       0.3333333333333333 [-]
	 SCS Opposite-Spin Scale   =       1.2000000000000000 [-]
	 SCS Same-Spin Energy      =      -0.0980424304667991 [Eh]
	 SCS Opposite-Spin Energy  =      -1.1086071833103841 [Eh]
	 SCS Correlation Energy    =      -1.2066496137771832 [Eh]
	 SCS Total Energy          =    -305.9605796646471845 [Eh]
	-----------------------------------------------------------


*** tstop() called on n048 at Mon Jun  8 15:03:30 2020
Module time:
	user time   =      35.04 seconds =       0.58 minutes
	system time =       0.71 seconds =       0.01 minutes
	total time  =          9 seconds =       0.15 minutes
Total time:
	user time   =     204.59 seconds =       3.41 minutes
	system time =       7.56 seconds =       0.13 minutes
	total time  =         55 seconds =       0.92 minutes

========================OPTAVC-XTPL==========================

MP2/QZ correlation energy -1.2179666108257172
SCF/QZ reference energy -304.75393005087


=============================================================

Scratch directory: /tmp/

Scratch directory: /tmp/
    SCF Algorithm Type (re)set to DF.

*** tstart() called on n048
*** at Mon Jun  8 15:03:30 2020


  //>>>>>>>>>>>>>>>>>>>>>>>>>>>>>>>>>>>//
  //      Guess SCF, pcseg-0 Basis     //
  //<<<<<<<<<<<<<<<<<<<<<<<<<<<<<<<<<<<//

   => Loading Basis Set <=

    Name: PCSEG-0
    Role: ORBITAL
    Keyword: BASIS
    atoms 1, 4, 7, 10     entry C          line    71 file /opt/psi/4/master/share/psi4/basis/pcseg-0.gbs 
    atoms 2-3, 5-6, 8, 11 entry H          line    13 file /opt/psi/4/master/share/psi4/basis/pcseg-0.gbs 
    atoms 9, 12           entry O          line   103 file /opt/psi/4/master/share/psi4/basis/pcseg-0.gbs 


         ---------------------------------------------------------
                           SCF Castup computation                  
         ---------------------------------------------------------
                                   SCF
               by Justin Turney, Rob Parrish, Andy Simmonett
                          and Daniel G. A. Smith
                              RHF Reference
                        4 Threads,    500 MiB Core
         ---------------------------------------------------------

  ==> Geometry <==

    Molecular point group: c1
    Full point group: C1

    Geometry (in Angstrom), charge = 0, multiplicity = 1:

       Center              X                  Y                   Z               Mass       
    ------------   -----------------  -----------------  -----------------  -----------------
         C           -1.174143750690    -0.774963495581    -0.000122054786    12.000000000000
         H           -1.619161817890    -1.211058947381    -0.891063737386     1.007825032230
         H           -1.619236641990    -1.211251475481     0.890686519114     1.007825032230
         C           -1.174259935390     0.774782497019     0.000039298714    12.000000000000
         H           -1.619408715490     1.210812725519     0.890946481514     1.007825032230
         H           -1.619363714790     1.211001803819    -0.890797846286     1.007825032230
         C            0.352842188210     0.922279063619     0.000099395014    12.000000000000
         H            0.838764338910     1.892384604019     0.000209357714     1.007825032230
         O            0.767400551710    -0.000070836064    -1.027272604431    15.994914619570
         C            0.352853120878    -0.921997655077    -0.000144874618    12.000000000000
         H            0.840357188099    -1.891309550546    -0.001728277952     1.007825032230
         O            0.767343169143    -0.000040987705     1.027478920358    15.994914619570

  Running in c1 symmetry.

  Rotational constants: A =      0.19854  B =      0.16229  C =      0.14678 [cm^-1]
  Rotational constants: A =   5951.96155  B =   4865.42167  C =   4400.27392 [MHz]
  Nuclear repulsion =  257.016235921416751

  Charge       = 0
  Multiplicity = 1
  Electrons    = 46
  Nalpha       = 23
  Nbeta        = 23

  ==> Algorithm <==

  SCF Algorithm Type is DF.
  DIIS enabled.
  MOM disabled.
  Fractional occupation disabled.
  Guess Type is SAD.
  Energy threshold   = 1.00e-10
  Density threshold  = 1.00e-10
  Integral threshold = 0.00e+00

  ==> Primary Basis <==

  Basis Set: PCSEG-0
    Blend: PCSEG-0
    Number of shells: 42
    Number of basis function: 66
    Number of Cartesian functions: 66
    Spherical Harmonics?: true
    Max angular momentum: 1

   => Loading Basis Set <=

    Name: (PCSEG-0 AUX)
    Role: JKFIT
    Keyword: DF_BASIS_SCF
    atoms 1, 4, 7, 10     entry C          line   198 file /opt/psi/4/master/share/psi4/basis/def2-universal-jkfit.gbs 
    atoms 2-3, 5-6, 8, 11 entry H          line    18 file /opt/psi/4/master/share/psi4/basis/def2-universal-jkfit.gbs 
    atoms 9, 12           entry O          line   318 file /opt/psi/4/master/share/psi4/basis/def2-universal-jkfit.gbs 

  ==> Integral Setup <==

  ==> DiskDFJK: Density-Fitted J/K Matrices <==

    J tasked:                  Yes
    K tasked:                  Yes
    wK tasked:                  No
    OpenMP threads:              4
    Integrals threads:           4
    Memory [MiB]:              375
    Algorithm:                Core
    Integral Cache:           NONE
    Schwarz Cutoff:          1E-12
    Fitting Condition:       1E-10

   => Auxiliary Basis Set <=

  Basis Set: (PCSEG-0 AUX)
    Blend: DEF2-UNIVERSAL-JKFIT
    Number of shells: 186
    Number of basis function: 562
    Number of Cartesian functions: 662
    Spherical Harmonics?: true
    Max angular momentum: 4

  Minimum eigenvalue in the overlap matrix is 1.2851193340E-03.
  Reciprocal condition number of the overlap matrix is 2.1225206921E-04.
    Using symmetric orthogonalization.

  ==> Pre-Iterations <==

  SCF Guess: Superposition of Atomic Densities via on-the-fly atomic UHF (no occupation information).

   -------------------------
    Irrep   Nso     Nmo    
   -------------------------
     A         66      66 
   -------------------------
    Total      66      66
   -------------------------

  ==> Iterations <==

                           Total Energy        Delta E     RMS |[F,P]|

   @DF-RHF iter SAD:  -303.69670657935171   -3.03697e+02   0.00000e+00 
   @DF-RHF iter   1:  -303.56573654584889    1.30970e-01   7.23974e-03 DIIS
   @DF-RHF iter   2:  -303.66476321318214   -9.90267e-02   3.96873e-03 DIIS
   @DF-RHF iter   3:  -303.69037308238177   -2.56099e-02   6.19783e-04 DIIS
   @DF-RHF iter   4:  -303.69155796237709   -1.18488e-03   1.96383e-04 DIIS
   @DF-RHF iter   5:  -303.69165366141010   -9.56990e-05   4.10509e-05 DIIS
   @DF-RHF iter   6:  -303.69166124853172   -7.58712e-06   8.37785e-06 DIIS
   @DF-RHF iter   7:  -303.69166165121084   -4.02679e-07   1.68858e-06 DIIS
   @DF-RHF iter   8:  -303.69166166532329   -1.41125e-08   5.42609e-07 DIIS
   @DF-RHF iter   9:  -303.69166166674324   -1.41995e-09   1.10000e-07 DIIS
   @DF-RHF iter  10:  -303.69166166681941   -7.61702e-11   2.41418e-08 DIIS
   @DF-RHF iter  11:  -303.69166166682135   -1.93268e-12   1.19244e-08 DIIS
   @DF-RHF iter  12:  -303.69166166682197   -6.25278e-13   2.02523e-09 DIIS
   @DF-RHF iter  13:  -303.69166166682203   -5.68434e-14   2.23822e-10 DIIS
   @DF-RHF iter  14:  -303.69166166682231   -2.84217e-13   8.29868e-11 DIIS
  Energy and wave function converged.


  ==> Post-Iterations <==

    Orbital Energies [Eh]
    ---------------------

    Doubly Occupied:                                                      

       1A    -20.584507     2A    -20.584440     3A    -11.369639  
       4A    -11.369559     5A    -11.256171     6A    -11.255774  
       7A     -1.537607     8A     -1.312996     9A     -1.091839  
      10A     -1.008923    11A     -0.821943    12A     -0.790159  
      13A     -0.768292    14A     -0.680688    15A     -0.662981  
      16A     -0.658516    17A     -0.552268    18A     -0.534506  
      19A     -0.527383    20A     -0.524503    21A     -0.519503  
      22A     -0.467028    23A     -0.443284  

    Virtual:                                                              

      24A      0.203069    25A      0.231181    26A      0.236133  
      27A      0.242170    28A      0.253207    29A      0.267340  
      30A      0.314370    31A      0.350186    32A      0.351010  
      33A      0.382149    34A      0.406878    35A      0.464639  
      36A      0.570329    37A      0.796452    38A      0.808105  
      39A      0.820784    40A      0.925810    41A      0.932765  
      42A      0.946992    43A      0.949916    44A      1.003364  
      45A      1.004939    46A      1.030124    47A      1.060589  
      48A      1.072120    49A      1.134135    50A      1.148911  
      51A      1.170447    52A      1.173924    53A      1.210851  
      54A      1.237875    55A      1.424606    56A      1.454678  
      57A      1.482536    58A      1.522017    59A      1.690721  
      60A      1.705529    61A      1.927952    62A      1.951162  
      63A      2.140081    64A      2.299125    65A      2.375007  
      66A      2.441215  

    Final Occupation by Irrep:
              A 
    DOCC [    23 ]

  @DF-RHF Final Energy:  -303.69166166682231

   => Energetics <=

    Nuclear Repulsion Energy =            257.0162359214167509
    One-Electron Energy =                -922.7707714486132318
    Two-Electron Energy =                 362.0628738603741681
    Total Energy =                       -303.6916616668223128

Computation Completed

  //>>>>>>>>>>>>>>>>>>>>>>>>>>>>>>>>>>>//
  //                SCF                //
  //<<<<<<<<<<<<<<<<<<<<<<<<<<<<<<<<<<<//

   => Loading Basis Set <=

    Name: HEAVY-AUG-CC-PV(T+D)Z
    Role: ORBITAL
    Keyword: BASIS
    atoms 1, 4, 7, 10     entry C          line   273 file /opt/psi/4/master/share/psi4/basis/heavy-aug-cc-pv_tpd_z.gbs 
    atoms 2-3, 5-6, 8, 11 entry H          line    86 file /opt/psi/4/master/share/psi4/basis/heavy-aug-cc-pv_tpd_z.gbs 
    atoms 9, 12           entry O          line   365 file /opt/psi/4/master/share/psi4/basis/heavy-aug-cc-pv_tpd_z.gbs 


         ---------------------------------------------------------
                                   SCF
               by Justin Turney, Rob Parrish, Andy Simmonett
                          and Daniel G. A. Smith
                              RHF Reference
                        4 Threads,    500 MiB Core
         ---------------------------------------------------------

  ==> Geometry <==

    Molecular point group: c1
    Full point group: C1

    Geometry (in Angstrom), charge = 0, multiplicity = 1:

       Center              X                  Y                   Z               Mass       
    ------------   -----------------  -----------------  -----------------  -----------------
         C           -1.174143750690    -0.774963495581    -0.000122054786    12.000000000000
         H           -1.619161817890    -1.211058947381    -0.891063737386     1.007825032230
         H           -1.619236641990    -1.211251475481     0.890686519114     1.007825032230
         C           -1.174259935390     0.774782497019     0.000039298714    12.000000000000
         H           -1.619408715490     1.210812725519     0.890946481514     1.007825032230
         H           -1.619363714790     1.211001803819    -0.890797846286     1.007825032230
         C            0.352842188210     0.922279063619     0.000099395014    12.000000000000
         H            0.838764338910     1.892384604019     0.000209357714     1.007825032230
         O            0.767400551710    -0.000070836064    -1.027272604431    15.994914619570
         C            0.352853120878    -0.921997655077    -0.000144874618    12.000000000000
         H            0.840357188099    -1.891309550546    -0.001728277952     1.007825032230
         O            0.767343169143    -0.000040987705     1.027478920358    15.994914619570

  Running in c1 symmetry.

  Rotational constants: A =      0.19854  B =      0.16229  C =      0.14678 [cm^-1]
  Rotational constants: A =   5951.96155  B =   4865.42167  C =   4400.27392 [MHz]
  Nuclear repulsion =  257.016235921416751

  Charge       = 0
  Multiplicity = 1
  Electrons    = 46
  Nalpha       = 23
  Nbeta        = 23

  ==> Algorithm <==

  SCF Algorithm Type is DF.
  DIIS enabled.
  MOM disabled.
  Fractional occupation disabled.
  Guess Type is SAD.
  Energy threshold   = 1.00e-10
  Density threshold  = 1.00e-10
  Integral threshold = 0.00e+00

  ==> Primary Basis <==

  Basis Set: HEAVY-AUG-CC-PV(T+D)Z
    Blend: HEAVY-AUG-CC-PV(T+D)Z
    Number of shells: 120
    Number of basis function: 360
    Number of Cartesian functions: 420
    Spherical Harmonics?: true
    Max angular momentum: 3

   => Loading Basis Set <=

    Name: (HEAVY-AUG-CC-PV(T+D)Z AUX)
    Role: JKFIT
    Keyword: DF_BASIS_SCF
    atoms 1, 4, 7, 10     entry C          line   200 file /opt/psi/4/master/share/psi4/basis/heavy-aug-cc-pvtz-jkfit.gbs 
    atoms 2-3, 5-6, 8, 11 entry H          line   116 file /opt/psi/4/master/share/psi4/basis/heavy-aug-cc-pvtz-jkfit.gbs 
    atoms 9, 12           entry O          line   324 file /opt/psi/4/master/share/psi4/basis/heavy-aug-cc-pvtz-jkfit.gbs 


  Computing basis projection from PCSEG-0 to HEAVY-AUG-CC-PV(T+D)Z

  ==> Integral Setup <==

  ==> DiskDFJK: Density-Fitted J/K Matrices <==

    J tasked:                  Yes
    K tasked:                  Yes
    wK tasked:                  No
    OpenMP threads:              4
    Integrals threads:           4
    Memory [MiB]:              375
    Algorithm:                Disk
    Integral Cache:           NONE
    Schwarz Cutoff:          1E-12
    Fitting Condition:       1E-10

   => Auxiliary Basis Set <=

  Basis Set: (HEAVY-AUG-CC-PV(T+D)Z AUX)
    Blend: HEAVY-AUG-CC-PVTZ-JKFIT
    Number of shells: 240
    Number of basis function: 804
    Number of Cartesian functions: 996
    Spherical Harmonics?: true
    Max angular momentum: 4

  Minimum eigenvalue in the overlap matrix is 5.5213384656E-06.
  Reciprocal condition number of the overlap matrix is 4.0364269796E-07.
    Using symmetric orthogonalization.

  ==> Pre-Iterations <==

  SCF Guess: Orbitals guess was supplied from a previous computation.

   -------------------------
    Irrep   Nso     Nmo    
   -------------------------
     A        360     360 
   -------------------------
    Total     360     360
   -------------------------

  ==> Iterations <==

                           Total Energy        Delta E     RMS |[F,P]|

   @DF-RHF iter   0:  -304.36276030939638   -3.04363e+02   4.15949e-03 
   @DF-RHF iter   1:  -304.71636933546358   -3.53609e-01   5.72596e-04 DIIS
   @DF-RHF iter   2:  -304.73153461826217   -1.51653e-02   2.71894e-04 DIIS
   @DF-RHF iter   3:  -304.73522951321047   -3.69489e-03   4.87413e-05 DIIS
   @DF-RHF iter   4:  -304.73549350333008   -2.63990e-04   1.58048e-05 DIIS
   @DF-RHF iter   5:  -304.73551457537502   -2.10720e-05   6.25457e-06 DIIS
   @DF-RHF iter   6:  -304.73551847754072   -3.90217e-06   1.42059e-06 DIIS
   @DF-RHF iter   7:  -304.73551874326148   -2.65721e-07   3.12902e-07 DIIS
   @DF-RHF iter   8:  -304.73551875750343   -1.42419e-08   7.98961e-08 DIIS
   @DF-RHF iter   9:  -304.73551875844038   -9.36950e-10   2.59651e-08 DIIS
   @DF-RHF iter  10:  -304.73551875852559   -8.52083e-11   6.48023e-09 DIIS
   @DF-RHF iter  11:  -304.73551875853178   -6.19593e-12   1.69893e-09 DIIS
   @DF-RHF iter  12:  -304.73551875853241   -6.25278e-13   5.04346e-10 DIIS
   @DF-RHF iter  13:  -304.73551875853235    5.68434e-14   1.76053e-10 DIIS
   @DF-RHF iter  14:  -304.73551875853275   -3.97904e-13   5.45565e-11 DIIS
  Energy and wave function converged.


  ==> Post-Iterations <==

    Orbital Energies [Eh]
    ---------------------

    Doubly Occupied:                                                      

       1A    -20.568108     2A    -20.568061     3A    -11.349664  
       4A    -11.349575     5A    -11.237722     6A    -11.237156  
       7A     -1.491679     8A     -1.293032     9A     -1.067711  
      10A     -0.988216    11A     -0.810418    12A     -0.789661  
      13A     -0.746564    14A     -0.672372    15A     -0.651349  
      16A     -0.646422    17A     -0.534138    18A     -0.524418  
      19A     -0.519411    20A     -0.512126    21A     -0.509927  
      22A     -0.459458    23A     -0.433529  

    Virtual:                                                              

      24A      0.050342    25A      0.050953    26A      0.059706  
      27A      0.072059    28A      0.073418    29A      0.092449  
      30A      0.093547    31A      0.096703    32A      0.116615  
      33A      0.126305    34A      0.127400    35A      0.130072  
      36A      0.162106    37A      0.176062    38A      0.195273  
      39A      0.204151    40A      0.206508    41A      0.214125  
      42A      0.220433    43A      0.228375    44A      0.233850  
      45A      0.249385    46A      0.268453    47A      0.268611  
      48A      0.277165    49A      0.295331    50A      0.300736  
      51A      0.312907    52A      0.331205    53A      0.335318  
      54A      0.341776    55A      0.347798    56A      0.356278  
      57A      0.356950    58A      0.362629    59A      0.374755  
      60A      0.397689    61A      0.404435    62A      0.412741  
      63A      0.421298    64A      0.432420    65A      0.446480  
      66A      0.457865    67A      0.465028    68A      0.485323  
      69A      0.492959    70A      0.503849    71A      0.510858  
      72A      0.516690    73A      0.519772    74A      0.527035  
      75A      0.528738    76A      0.543693    77A      0.545973  
      78A      0.580837    79A      0.592154    80A      0.608213  
      81A      0.613187    82A      0.620779    83A      0.653712  
      84A      0.658705    85A      0.673248    86A      0.722022  
      87A      0.735782    88A      0.747605    89A      0.753813  
      90A      0.770335    91A      0.780947    92A      0.791203  
      93A      0.797154    94A      0.815662    95A      0.818588  
      96A      0.828063    97A      0.844028    98A      0.877688  
      99A      0.891376   100A      0.926888   101A      0.928737  
     102A      0.938718   103A      0.946000   104A      0.970420  
     105A      0.985537   106A      0.998728   107A      1.032075  
     108A      1.037120   109A      1.038531   110A      1.060372  
     111A      1.082293   112A      1.096503   113A      1.114113  
     114A      1.120813   115A      1.138317   116A      1.160753  
     117A      1.185546   118A      1.222862   119A      1.247390  
     120A      1.251825   121A      1.261121   122A      1.283395  
     123A      1.321651   124A      1.329899   125A      1.335794  
     126A      1.352809   127A      1.373505   128A      1.383862  
     129A      1.398529   130A      1.403595   131A      1.415142  
     132A      1.446537   133A      1.447560   134A      1.457977  
     135A      1.483340   136A      1.499084   137A      1.505914  
     138A      1.528601   139A      1.546511   140A      1.560350  
     141A      1.581696   142A      1.586372   143A      1.586913  
     144A      1.589151   145A      1.599955   146A      1.654208  
     147A      1.656696   148A      1.670261   149A      1.677177  
     150A      1.683946   151A      1.698635   152A      1.707816  
     153A      1.715598   154A      1.731744   155A      1.735543  
     156A      1.750382   157A      1.752210   158A      1.791883  
     159A      1.799779   160A      1.806970   161A      1.822884  
     162A      1.901514   163A      1.902152   164A      1.930528  
     165A      1.939426   166A      1.949994   167A      1.984787  
     168A      1.990389   169A      2.003203   170A      2.007832  
     171A      2.026949   172A      2.046270   173A      2.055472  
     174A      2.058966   175A      2.150318   176A      2.151548  
     177A      2.209382   178A      2.252552   179A      2.300643  
     180A      2.333529   181A      2.392424   182A      2.401548  
     183A      2.419770   184A      2.443785   185A      2.450899  
     186A      2.472332   187A      2.504281   188A      2.508353  
     189A      2.540803   190A      2.579727   191A      2.628553  
     192A      2.646125   193A      2.682662   194A      2.686052  
     195A      2.723908   196A      2.769303   197A      2.787648  
     198A      2.875373   199A      2.875972   200A      2.891200  
     201A      2.914521   202A      2.921448   203A      2.954093  
     204A      2.959259   205A      2.963867   206A      3.076868  
     207A      3.098217   208A      3.119192   209A      3.128048  
     210A      3.181027   211A      3.186732   212A      3.204924  
     213A      3.215628   214A      3.240437   215A      3.261273  
     216A      3.306454   217A      3.332601   218A      3.408729  
     219A      3.412151   220A      3.414684   221A      3.434547  
     222A      3.441155   223A      3.471910   224A      3.484306  
     225A      3.500955   226A      3.524477   227A      3.538589  
     228A      3.602470   229A      3.626616   230A      3.630520  
     231A      3.667195   232A      3.683032   233A      3.695907  
     234A      3.706242   235A      3.728458   236A      3.730361  
     237A      3.749304   238A      3.816170   239A      3.832765  
     240A      3.843036   241A      3.865998   242A      3.873541  
     243A      3.926660   244A      3.952300   245A      3.959813  
     246A      3.961365   247A      3.964721   248A      4.004164  
     249A      4.018733   250A      4.049027   251A      4.053589  
     252A      4.073937   253A      4.105534   254A      4.112044  
     255A      4.144700   256A      4.163217   257A      4.169962  
     258A      4.180615   259A      4.185889   260A      4.211979  
     261A      4.235145   262A      4.245080   263A      4.258199  
     264A      4.263899   265A      4.267933   266A      4.315992  
     267A      4.343489   268A      4.365886   269A      4.424943  
     270A      4.471734   271A      4.479173   272A      4.482229  
     273A      4.495482   274A      4.511496   275A      4.526686  
     276A      4.552393   277A      4.583219   278A      4.637818  
     279A      4.688146   280A      4.689052   281A      4.702464  
     282A      4.706602   283A      4.730581   284A      4.743736  
     285A      4.755652   286A      4.805909   287A      4.820299  
     288A      4.821050   289A      4.838076   290A      4.885774  
     291A      4.907406   292A      4.957725   293A      4.963714  
     294A      4.964791   295A      5.096343   296A      5.117595  
     297A      5.125439   298A      5.190423   299A      5.194045  
     300A      5.238636   301A      5.265631   302A      5.282128  
     303A      5.394506   304A      5.417381   305A      5.435275  
     306A      5.465052   307A      5.472075   308A      5.581570  
     309A      5.582106   310A      5.596154   311A      5.653173  
     312A      5.704885   313A      5.713084   314A      5.717855  
     315A      5.861885   316A      5.868427   317A      5.897608  
     318A      5.926349   319A      6.060395   320A      6.123033  
     321A      6.140879   322A      6.205306   323A      6.241117  
     324A      6.281292   325A      6.284442   326A      6.348089  
     327A      6.383703   328A      6.493101   329A      6.559780  
     330A      6.901218   331A      6.901588   332A      6.939407  
     333A      6.962611   334A      6.996154   335A      7.024546  
     336A      7.104640   337A      7.128397   338A      7.172370  
     339A      7.189171   340A      7.226208   341A      7.238122  
     342A      7.389338   343A      7.488132   344A      7.587935  
     345A      7.608790   346A      7.634681   347A      7.736913  
     348A      7.793308   349A      7.821000   350A      7.910797  
     351A      8.037948   352A      8.194508   353A      8.219705  
     354A      8.227001   355A     14.245056   356A     15.440876  
     357A     15.554774   358A     15.868340   359A     17.396180  
     360A     18.710907  

    Final Occupation by Irrep:
              A 
    DOCC [    23 ]

  @DF-RHF Final Energy:  -304.73551875853275

   => Energetics <=

    Nuclear Repulsion Energy =            257.0162359214167509
    One-Electron Energy =                -925.5820730461302901
    Two-Electron Energy =                 363.8303183661807907
    Total Energy =                       -304.7355187585327485

Computation Completed


Properties will be evaluated at   0.000000,   0.000000,   0.000000 [a0]

Properties computed using the SCF density matrix

  Nuclear Dipole Moment: [e a0]
     X:    -4.4907      Y:     0.0005      Z:    -0.0016

  Electronic Dipole Moment: [e a0]
     X:     3.7182      Y:     0.0001      Z:     0.0011

  Dipole Moment: [e a0]
     X:    -0.7725      Y:     0.0007      Z:    -0.0005     Total:     0.7725

  Dipole Moment: [D]
     X:    -1.9634      Y:     0.0017      Z:    -0.0012     Total:     1.9634


*** tstop() called on n048 at Mon Jun  8 15:03:43 2020
Module time:
	user time   =      42.99 seconds =       0.72 minutes
	system time =       2.54 seconds =       0.04 minutes
	total time  =         13 seconds =       0.22 minutes
Total time:
	user time   =     248.04 seconds =       4.13 minutes
	system time =      10.28 seconds =       0.17 minutes
	total time  =         68 seconds =       1.13 minutes

*** tstart() called on n048
*** at Mon Jun  8 15:03:43 2020


  //>>>>>>>>>>>>>>>>>>>>>>>>>>>>>>>>>>>//
  //               DFMP2               //
  //<<<<<<<<<<<<<<<<<<<<<<<<<<<<<<<<<<<//

   => Loading Basis Set <=

    Name: (HEAVY-AUG-CC-PV(T+D)Z AUX)
    Role: RIFIT
    Keyword: DF_BASIS_MP2
    atoms 1, 4, 7, 10     entry C          line   148 file /opt/psi/4/master/share/psi4/basis/heavy-aug-cc-pvtz-ri.gbs 
    atoms 2-3, 5-6, 8, 11 entry H          line    44 file /opt/psi/4/master/share/psi4/basis/heavy-aug-cc-pvtz-ri.gbs 
    atoms 9, 12           entry O          line   264 file /opt/psi/4/master/share/psi4/basis/heavy-aug-cc-pvtz-ri.gbs 

	 --------------------------------------------------------
	                          DF-MP2                         
	      2nd-Order Density-Fitted Moller-Plesset Theory     
	              RMP2 Wavefunction,   4 Threads             
	                                                         
	        Rob Parrish, Justin Turney, Andy Simmonett,      
	           Ed Hohenstein, and C. David Sherrill          
	 --------------------------------------------------------

   => Auxiliary Basis Set <=

  Basis Set: (HEAVY-AUG-CC-PV(T+D)Z AUX)
    Blend: HEAVY-AUG-CC-PVTZ-RI
    Number of shells: 228
    Number of basis function: 816
    Number of Cartesian functions: 1026
    Spherical Harmonics?: true
    Max angular momentum: 4

	 --------------------------------------------------------
	                 NBF =   360, NAUX =   816
	 --------------------------------------------------------
	   CLASS    FOCC     OCC    AOCC    AVIR     VIR    FVIR
	   PAIRS       6      23      17     337     337       0
	 --------------------------------------------------------

	-----------------------------------------------------------
	 ==================> DF-MP2 Energies <==================== 
	-----------------------------------------------------------
	 Reference Energy          =    -304.7355187585327485 [Eh]
	 Singles Energy            =      -0.0000000000000000 [Eh]
	 Same-Spin Energy          =      -0.2854821695616388 [Eh]
	 Opposite-Spin Energy      =      -0.8633095339801113 [Eh]
	 Correlation Energy        =      -1.1487917035417501 [Eh]
	 Total Energy              =    -305.8843104620744953 [Eh]
	-----------------------------------------------------------
	 ================> DF-SCS-MP2 Energies <================== 
	-----------------------------------------------------------
	 SCS Same-Spin Scale       =       0.3333333333333333 [-]
	 SCS Opposite-Spin Scale   =       1.2000000000000000 [-]
	 SCS Same-Spin Energy      =      -0.0951607231872129 [Eh]
	 SCS Opposite-Spin Energy  =      -1.0359714407761336 [Eh]
	 SCS Correlation Energy    =      -1.1311321639633465 [Eh]
	 SCS Total Energy          =    -305.8666509224960919 [Eh]
	-----------------------------------------------------------


*** tstop() called on n048 at Mon Jun  8 15:03:45 2020
Module time:
	user time   =       8.30 seconds =       0.14 minutes
	system time =       0.13 seconds =       0.00 minutes
	total time  =          2 seconds =       0.03 minutes
Total time:
	user time   =     256.35 seconds =       4.27 minutes
	system time =      10.41 seconds =       0.17 minutes
	total time  =         70 seconds =       1.17 minutes

========================OPTAVC-XTPL==========================

MP2/TZ correlation energy -1.14879170354175

=============================================================

    Psi4 stopped on: Monday, 08 June 2020 03:03PM
    Psi4 wall time for execution: 0:01:09.69

*** Psi4 exiting successfully. Buy a developer a beer!
