
 Primary working directories    : /tmp/320938.599.gen4.q
 Secondary working directories  : /tmp/320938.599.gen4.q
 Wavefunction directory         : /home/vulcan/mel64643/wfu/
 Main file repository           : /tmp/320938.599.gen4.q/

 ARCHNAME  : Linux/x86_64
 FC        : /opt/intel/compilers_and_libraries_2016.1.150/linux/bin/intel64/ifort
 FCVERSION : 16.0.1
 BLASLIB   : -mkl
 id        : ccgc

 Nodes     nprocs
 n058         3
 Number of processes for MPI-2 version of Molpro:   nprocs(total)=    4   nprocs(compute)=    3   nprocs(helper)=    1
 ga_uses_ma=false, calling ma_init with nominal heap.
 GA-space will be limited to   8.0 MW (determined by -G option)

 Using customized tuning parameters: mindgm=10; mindgv=16; mindgc=4; mindgr=1; noblas=0; mincuda=1000; minvec=7
 default implementation of scratch files=sf  

 ***,Frequencies for min3
 memory,1000,m
 gthresh,energy=1.0d-10,orbital=1.0d-10,oneint=1.0d-16,twoint=1.0d-16,optgrad=1.0d-6,compress=1.0d-13
 geomtyp=xyz
 
  geometry = {
  12
  arbitrary comment
     C    1.776964391707    0.711398808326   -0.047331391796
     C    0.491811976407   -0.059992870174   -0.196493901896
     C    0.450332819107   -1.536294019674    0.101417522804
     O   -0.560767745493    0.727234937526    0.254015897436
     O   -1.837841165583    0.092261408667   -0.120248025919
     H    2.585406397951    0.211670253643   -0.612984967232
     H    1.660508937202    1.743069684388   -0.424714469959
     H    2.094721405244    0.773756301949    1.019296529107
     H   -0.504729769689   -1.982741874851   -0.220306280510
     H    1.282108619268   -2.047039759158   -0.416759836610
     H    0.561407815613   -1.719575725640    1.194994550882
     H   -1.987726624593    0.551070203053   -0.966893788375
  }
 
 basis=cc-pvdz
 {rhf;maxit,200}
 {uccsd(t);maxit,200}

 Variables initialized (661), CPU time= 0.00 sec
 Commands  initialized (458), CPU time= 0.01 sec, 486 directives.
 Default parameters read. Elapsed time= 0.07 sec

 Checking input...
 Passed
1


                                         ***  PROGRAM SYSTEM MOLPRO  ***
                         Copyright, University College Cardiff Consultants Limited, 2008

                                    Version 2010.1 linked May 16 2016 07:17:05


 **********************************************************************************************************************************
 LABEL *   Frequencies for min3                                                          
 Linux-4.4.3/n058(x86_64) 64 bit mpp version                                             DATE: 07-Mar-20          TIME: 04:29:20  
 **********************************************************************************************************************************

 SHA1:             9e8077add272b0f3cad6f7df79ec5211205f459d
 **********************************************************************************************************************************

 THRESHOLDS:

 ZERO    =  1.00D-12  ONEINT  =  1.00D-16  TWOINT  =  1.00D-16  PREFAC  =  1.00D-14  LOCALI  =  1.00D-09  EORDER  =  1.00D-04
 ENERGY  =  1.00D-10  ETEST   =  0.00D+00  EDENS   =  0.00D+00  THRDEDEF=  1.00D-06  GRADIENT=  1.00D-02  STEP    =  1.00D-03
 ORBITAL =  1.00D-10  CIVEC   =  1.00D-05  COEFF   =  1.00D-04  PRINTCI =  5.00D-02  PUNCHCI =  9.90D+01  OPTGRAD =  1.00D-06
 OPTENERG=  1.00D-06  OPTSTEP =  3.00D-04  THRGRAD =  1.00D-10  COMPRESS=  1.00D-13  VARMIN  =  1.00D-07  VARMAX  =  1.00D-03
 THRDOUB =  0.00D+00  THRDIV  =  1.00D-05  THRRED  =  1.00D-07  THRPSP  =  1.00D+00  THRDC   =  1.00D-10  THRCS   =  1.00D-10
 THRNRM  =  1.00D-08  THREQ   =  0.00D+00  THRDE   =  1.00D+00  THRREF  =  1.00D-05  SPARFAC =  1.00D+00  THRDLP  =  1.00D-07
 THRDIA  =  1.00D-10  THRDLS  =  1.00D-07  THRGPS  =  0.00D+00  THRKEX  =  0.00D+00  THRDIS  =  2.00D-01  THRVAR  =  1.00D-10
 THRLOC  =  1.00D-06  THRGAP  =  1.00D-06  THRLOCT = -1.00D+00  THRGAPT = -1.00D+00  THRORB  =  1.00D-06  THRMLTP =  0.00D+00
 THRCPQCI=  1.00D-10  KEXTA   =  0.00D+00  THRCOARS=  0.00D+00  SYMTOL  =  1.00D-06  GRADTOL =  1.00D-06  THROVL  =  1.00D-08
 THRORTH =  1.00D-08  GRID    =  1.00D-06  GRIDMAX =  1.00D-03  DTMAX   =  0.00D+00

 SETTING GEOMTYP        =    XYZ

 Variable memory set to 1000000000 words,  buffer space   230000 words

 SETTING BASIS          =    CC-PVDZ


 Recomputing integrals since basis changed


 Using spherical harmonics

 Library entry C      S cc-pVDZ              selected for orbital group  1
 Library entry C      P cc-pVDZ              selected for orbital group  1
 Library entry C      D cc-pVDZ              selected for orbital group  1
 Library entry O      S cc-pVDZ              selected for orbital group  2
 Library entry O      P cc-pVDZ              selected for orbital group  2
 Library entry O      D cc-pVDZ              selected for orbital group  2
 Library entry H      S cc-pVDZ              selected for orbital group  3
 Library entry H      P cc-pVDZ              selected for orbital group  3

1PROGRAM * SEWARD (Integral evaluation for generally contracted gaussian basis sets)     Author: Roland Lindh, 1990

 Geometry written to block  1 of record 700


 Point group  C1  



 ATOMIC COORDINATES

 NR  ATOM    CHARGE       X              Y              Z

   1  C       6.00    3.357976046    1.344348918   -0.089443368
   2  C       6.00    0.929389944   -0.113370094   -0.371319661
   3  C       6.00    0.851005696   -2.903174955    0.191651343
   4  O       8.00   -1.059697462    1.374274865    0.480020479
   5  O       8.00   -3.473016476    0.174348795   -0.227235837
   6  H       1.00    4.885710031    0.399998810   -1.158373711
   7  H       1.00    3.137907130    3.293924331   -0.802594032
   8  H       1.00    3.958449778    1.462187503    1.926191287
   9  H       1.00   -0.953801035   -3.746839133   -0.416318535
  10  H       1.00    2.422834161   -3.868344525   -0.787561954
  11  H       1.00    1.060907020   -3.249527184    2.258212430
  12  H       1.00   -3.756258945    1.041371763   -1.827164458

 Bond lengths in Bohr (Angstrom)

 1-2  2.846476668  1-6  2.090067064  1-7  2.087548440  1-8  2.106475183  2-3  2.847119878
     ( 1.506290578)     ( 1.106015856)     ( 1.104683057)     ( 1.114698658)     ( 1.506630951)

  2- 4  2.625706813   3- 9  2.082960383   3-10  2.088314082   3-11  2.105871116   4- 5  2.786421133
       ( 1.389464203)       ( 1.102255162)       ( 1.105088217)       ( 1.114379000)       ( 1.474510558)

  5-12  1.841664116
       ( 0.974566677)

 Bond angles

  1-2-3  120.37866573   1-2-4  108.90944847   2-1-6  109.97479610   2-1-7  110.76240753

  2- 1- 8  111.50702583   2- 3- 9  111.28567567   2- 3-10  109.84232590   2- 3-11  110.63768189

  2- 4- 5  109.25828609   3- 2- 4  118.04702874   4- 5-12   98.68342738   6- 1- 7  108.92347003

  6- 1- 8  107.83571714   7- 1- 8  107.73988708   9- 3-10  109.15406907   9- 3-11  107.82904855

 10- 3-11  108.00570266

 NUCLEAR CHARGE:                   41
 NUMBER OF PRIMITIVE AOS:         184
 NUMBER OF SYMMETRY AOS:          179
 NUMBER OF CONTRACTIONS:          105   ( 105A   )
 NUMBER OF CORE ORBITALS:           5   (   5A   )
 NUMBER OF VALENCE ORBITALS:       27   (  27A   )


 NUCLEAR REPULSION ENERGY  183.22193222


 Eigenvalues of metric

         1 0.345E-02 0.435E-02 0.105E-01 0.141E-01 0.182E-01 0.214E-01 0.331E-01 0.346E-01


 Contracted 2-electron integrals neglected if value below      1.0D-16
 AO integral compression algorithm  1   Integral accuracy      1.0D-16

     127.664 MB (compressed) written to integral file ( 93.2%)

     Node minimum: 40.632 MB, node maximum: 45.089 MB


 NUMBER OF SORTED TWO-ELECTRON INTEGRALS:    5164320.     BUFFER LENGTH:  32768
 NUMBER OF SEGMENTS:   1  SEGMENT LENGTH:    5164320      RECORD LENGTH: 524288

 Memory used in sort:       5.72 MW

 SORT1 READ    17075251. AND WROTE     5135906. INTEGRALS IN     15 RECORDS. CPU TIME:     0.22 SEC, REAL TIME:     0.25 SEC
 SORT2 READ    15396602. AND WROTE    15487395. INTEGRALS IN    465 RECORDS. CPU TIME:     0.06 SEC, REAL TIME:     0.11 SEC

 Node minimum:     5160610.  Node maximum:     5164320. integrals

 OPERATOR DM      FOR CENTER  0  COORDINATES:    0.000000    0.000000    0.000000


 **********************************************************************************************************************************
 DATASETS  * FILE   NREC   LENGTH (MB)   RECORD NAMES
              1      18        3.17       500      610      700      900      950      970     1000      129      960     1100   
                                          VAR    BASINP    GEOM    SYMINP    ZMAT    AOBASIS   BASIS     P2S    ABASIS      S 
                                         1400     1410     1200     1210     1080     1600     1650     1700   
                                           T        V       H0       H01     AOSYM     SMH    MOLCAS    OPER   

 PROGRAMS   *        TOTAL       INT
 CPU TIMES  *         0.96      0.88
 REAL TIME  *         1.39 SEC
 DISK USED  *       306.48 MB      
 GA USED    *         0.00 MB       (max)       0.00 MB       (current)
 **********************************************************************************************************************************

1PROGRAM * RHF-SCF (OPEN SHELL)       Authors: W. Meyer, H.-J. Werner


 NUMBER OF ELECTRONS:      21+   20-    SPACE SYMMETRY=1    SPIN SYMMETRY: Doublet 
 CONVERGENCE THRESHOLDS:    1.00E-10 (Density)    1.00E-11 (Energy)
 MAX. NUMBER OF ITERATIONS:      200
 INTERPOLATION TYPE:            DIIS
 INTERPOLATION STEPS:              2 (START)      1 (STEP)
 LEVEL SHIFTS:                 -0.30 (CLOSED)  0.00 (OPEN) 



 Orbital guess generated from atomic densities. Full valence occupancy:   32

 Molecular orbital dump at record        2100.2

 ITERATION    DDIFF          GRAD             ENERGY        2-EL.EN.            DIPOLE MOMENTS         DIIS
    1      0.000D+00      0.000D+00      -267.17825127    555.816770    0.56954    0.04995   -0.74866    0
    2      0.000D+00      0.617D-02      -267.24890281    555.739258    0.41344   -0.13074   -0.59881    1
    3      0.927D-02      0.214D-02      -267.26107210    555.656816    0.39302   -0.05881   -0.62623    2
    4      0.336D-02      0.912D-03      -267.26467689    555.809132    0.37840   -0.09898   -0.64268    3
    5      0.186D-02      0.363D-03      -267.26524554    555.780488    0.38092   -0.09250   -0.63570    4
    6      0.792D-03      0.110D-03      -267.26532187    555.766713    0.37918   -0.09229   -0.63844    5
    7      0.277D-03      0.511D-04      -267.26534197    555.763711    0.37846   -0.09204   -0.63794    6
    8      0.144D-03      0.272D-04      -267.26534802    555.761757    0.37873   -0.09215   -0.63815    7
    9      0.923D-04      0.115D-04      -267.26534894    555.762075    0.37892   -0.09211   -0.63791    8
   10      0.365D-04      0.500D-05      -267.26534909    555.762684    0.37918   -0.09212   -0.63797    9
   11      0.146D-04      0.196D-05      -267.26534912    555.762527    0.37923   -0.09212   -0.63798    9
   12      0.650D-05      0.669D-06      -267.26534912    555.762662    0.37925   -0.09212   -0.63797    9
   13      0.227D-05      0.226D-06      -267.26534912    555.762577    0.37925   -0.09212   -0.63797    9
   14      0.631D-06      0.757D-07      -267.26534912    555.762586    0.37925   -0.09212   -0.63797    9
   15      0.193D-06      0.301D-07      -267.26534912    555.762582    0.37925   -0.09212   -0.63797    9
   16      0.826D-07      0.145D-07      -267.26534912    555.762584    0.37925   -0.09212   -0.63797    9
   17      0.375D-07      0.752D-08      -267.26534912    555.762584    0.37925   -0.09212   -0.63797    9
   18      0.223D-07      0.342D-08      -267.26534912    555.762584    0.37925   -0.09212   -0.63797    9
   19      0.114D-07      0.133D-08      -267.26534912    555.762584    0.37925   -0.09212   -0.63797    9
   20      0.443D-08      0.566D-09      -267.26534912    555.762584    0.37925   -0.09212   -0.63797    9
   21      0.165D-08      0.286D-09      -267.26534912    555.762584    0.37925   -0.09212   -0.63797    9
   22      0.754D-09      0.162D-09      -267.26534912    555.762584    0.37925   -0.09212   -0.63797    9
   23      0.446D-09      0.795D-10      -267.26534912    555.762584    0.37925   -0.09212   -0.63797    9
   24      0.263D-09      0.316D-10      -267.26534912    555.762584    0.37925   -0.09212   -0.63797    9
   25      0.930D-10      0.129D-10      -267.26534912    555.762584    0.37925   -0.09212   -0.63797    0

 Final alpha occupancy:  21
 Final beta  occupancy:  20

 !RHF STATE 1.1 Energy               -267.265349121735
 Nuclear energy                       183.22193222
 One-electron energy                 -728.36857316
 Two-electron energy                  277.88129182
 Virial quotient                       -1.00156311
 !RHF STATE 1.1 Dipole moment           0.37925161    -0.09211794    -0.63797098
 Dipole moment /Debye                   0.96389832    -0.23412511    -1.62145428

 Orbital energies:

         1.1          2.1          3.1          4.1          5.1          6.1          7.1          8.1          9.1         10.1
    -20.630455   -20.628869   -11.279257   -11.238066   -11.232201    -1.470277    -1.240717    -1.023151    -0.945256    -0.768417

        11.1         12.1         13.1         14.1         15.1         16.1         17.1         18.1         19.1         20.1
     -0.704632    -0.643083    -0.626812    -0.588598    -0.545031    -0.543404    -0.538889    -0.516980    -0.492986    -0.469807

        21.1         22.1         23.1
     -0.352209     0.181283     0.183524


 **********************************************************************************************************************************
 DATASETS  * FILE   NREC   LENGTH (MB)   RECORD NAMES
              1      18        3.17       500      610      700      900      950      970     1000      129      960     1100   
                                          VAR    BASINP    GEOM    SYMINP    ZMAT    AOBASIS   BASIS     P2S    ABASIS      S 
                                         1400     1410     1200     1210     1080     1600     1650     1700   
                                           T        V       H0       H01     AOSYM     SMH    MOLCAS    OPER   

              2       3        0.77       700     1000     2100   
                                         GEOM     BASIS     RHF  

 PROGRAMS   *        TOTAL       RHF       INT
 CPU TIMES  *         2.07      1.11      0.88
 REAL TIME  *         2.64 SEC
 DISK USED  *       323.05 MB      
 SF USED    *         0.04 MB      
 GA USED    *         0.00 MB       (max)       0.00 MB       (current)
 **********************************************************************************************************************************


1PROGRAM * CCSD (Unrestricted open-shell coupled cluster)     Authors: C. Hampel, H.-J. Werner, 1991, M. Deegan, P.J. Knowles, 1992


 Convergence thresholds:  THRVAR = 1.00D-08  THRDEN = 1.00D-10

 CCSD(T)     terms to be evaluated (factor= 1.000)


 Number of core orbitals:           5 (   5 )
 Number of closed-shell orbitals:  15 (  15 )
 Number of active  orbitals:        1 (   1 )
 Number of external orbitals:      84 (  84 )

 Memory could be reduced to 24.91 Mwords without degradation in triples

 Number of N-1 electron functions:              31
 Number of N-2 electron functions:             465
 Number of singly external CSFs:              2635
 Number of doubly external CSFs:           2537250
 Total number of CSFs:                     2539885

 Molecular orbitals read from record     2100.2  Type=RHF/CANONICAL (state 1.1)

 Integral transformation finished. Total CPU:   0.91 sec, npass=  1  Memory used:  12.63 MW

 Starting RMP2 calculation

 ITER.      SQ.NORM     CORR.ENERGY   TOTAL ENERGY   ENERGY CHANGE        DEN1      VAR(S)    VAR(P)  DIIS     TIME
   1      1.24305971    -0.78641092  -268.05176004    -0.78641092    -0.00305033  0.20D-04  0.11D-02  1  1     1.25
   2      1.24570185    -0.78970051  -268.05504964    -0.00328959    -0.00000475  0.54D-06  0.19D-05  2  2     1.55
   3      1.24576745    -0.78974260  -268.05509172    -0.00004209    -0.00000003  0.16D-07  0.68D-08  3  3     1.89
   4      1.24576840    -0.78974260  -268.05509172    -0.00000000    -0.00000000  0.27D-09  0.38D-10  4  4     2.24
   5      1.24576849    -0.78974264  -268.05509176    -0.00000003    -0.00000000  0.25D-11  0.65D-12  5  5     2.63
   6      1.24576850    -0.78974264  -268.05509176    -0.00000001    -0.00000000  0.28D-13  0.87D-14  6  6     3.04
   7      1.24576850    -0.78974264  -268.05509176     0.00000000    -0.00000000  0.47D-15  0.12D-15  6  1     3.45
   8      1.24576850    -0.78974264  -268.05509176     0.00000000    -0.00000000  0.60D-17  0.13D-17  6  2     3.87

 Norm of t1 vector:      0.03894370      S-energy:    -0.00227247      T1 diagnostic:  0.00055058
 Norm of t2 vector:      0.49421846      P-energy:    -0.78747017
                                         Alpha-Beta:  -0.59344355
                                         Alpha-Alpha: -0.10094378
                                         Beta-Beta:   -0.09308284

 Spin contamination <S**2-Sz**2-Sz>     0.00104077
  Reference energy                   -267.265349121734
  RHF-RMP2 correlation energy          -0.789742641804
 !RHF-RMP2 energy                    -268.055091763538

 Starting UCCSD calculation

 ITER.      SQ.NORM     CORR.ENERGY   TOTAL ENERGY   ENERGY CHANGE        DEN1      VAR(S)    VAR(P)  DIIS     TIME
   1      1.26283835    -0.80908003  -268.07442915    -0.80908003    -0.02515987  0.38D-02  0.59D-02  1  1     9.27
   2      1.29162138    -0.83649375  -268.10184287    -0.02741372    -0.00201175  0.22D-03  0.66D-03  2  2    14.66
   3      1.30156693    -0.84099371  -268.10634283    -0.00449997    -0.00032470  0.19D-03  0.56D-04  3  3    20.06
   4      1.30648128    -0.84247132  -268.10782044    -0.00147761    -0.00007207  0.43D-04  0.14D-04  4  4    25.51
   5      1.30921072    -0.84285945  -268.10820858    -0.00038814    -0.00002366  0.19D-04  0.32D-05  5  5    30.95
   6      1.31114857    -0.84306383  -268.10841296    -0.00020438    -0.00000645  0.42D-05  0.12D-05  6  6    36.50
   7      1.31209665    -0.84312257  -268.10847169    -0.00005873    -0.00000208  0.14D-05  0.37D-06  6  2    42.00
   8      1.31253735    -0.84316519  -268.10851431    -0.00004262    -0.00000065  0.45D-06  0.11D-06  6  1    47.48
   9      1.31272224    -0.84316977  -268.10851889    -0.00000458    -0.00000022  0.15D-06  0.35D-07  6  4    53.01
  10      1.31278536    -0.84317270  -268.10852182    -0.00000293    -0.00000005  0.35D-07  0.95D-08  6  3    58.47
  11      1.31281481    -0.84317144  -268.10852056     0.00000126    -0.00000002  0.13D-07  0.28D-08  6  5    63.97
  12      1.31282515    -0.84317117  -268.10852029     0.00000027    -0.00000000  0.26D-08  0.95D-09  6  6    69.46
  13      1.31282399    -0.84317025  -268.10851938     0.00000092    -0.00000000  0.96D-09  0.28D-09  6  2    74.97
  14      1.31281878    -0.84316941  -268.10851853     0.00000085    -0.00000000  0.21D-09  0.67D-10  6  1    80.45
  15      1.31281471    -0.84316882  -268.10851794     0.00000059    -0.00000000  0.78D-10  0.19D-10  6  4    85.94
  16      1.31281153    -0.84316844  -268.10851756     0.00000038    -0.00000000  0.28D-10  0.63D-11  6  3    91.42
  17      1.31280934    -0.84316820  -268.10851732     0.00000024    -0.00000000  0.10D-10  0.24D-11  6  5    96.95
  18      1.31280843    -0.84316814  -268.10851726     0.00000006    -0.00000000  0.41D-11  0.87D-12  6  6   102.48
  19      1.31280783    -0.84316811  -268.10851723     0.00000003    -0.00000000  0.16D-11  0.37D-12  6  2   107.94
  20      1.31280751    -0.84316810  -268.10851722     0.00000001    -0.00000000  0.60D-12  0.13D-12  6  1   113.43
  21      1.31280735    -0.84316809  -268.10851721     0.00000001    -0.00000000  0.28D-12  0.58D-13  6  4   118.90
  22      1.31280723    -0.84316808  -268.10851720     0.00000001    -0.00000000  0.73D-13  0.21D-13  6  3   124.43
  23      1.31280717    -0.84316807  -268.10851720     0.00000000    -0.00000000  0.21D-13  0.62D-14  6  5   129.92
  24      1.31280716    -0.84316807  -268.10851720    -0.00000000    -0.00000000  0.67D-14  0.22D-14  6  6   135.46
  25      1.31280717    -0.84316808  -268.10851720    -0.00000000    -0.00000000  0.21D-14  0.52D-15  6  2   140.94
  26      1.31280717    -0.84316808  -268.10851720    -0.00000000    -0.00000000  0.76D-15  0.15D-15  6  1   146.42
  27      1.31280718    -0.84316808  -268.10851720    -0.00000000    -0.00000000  0.20D-15  0.62D-16  6  3   151.92
  28      1.31280719    -0.84316808  -268.10851720    -0.00000000    -0.00000000  0.29D-16  0.11D-16  6  4   157.39
  29      1.31280719    -0.84316808  -268.10851720    -0.00000000    -0.00000000  0.70D-17  0.29D-17  6  5   162.90
  30      1.31280719    -0.84316808  -268.10851720    -0.00000000    -0.00000000  0.15D-17  0.53D-18  6  6   168.43
  31      1.31280719    -0.84316808  -268.10851720    -0.00000000    -0.00000000  0.35D-18  0.10D-18  6  2   173.93

 Norm of t1 vector:      0.13871513      S-energy:    -0.00282221      T1 diagnostic:  0.01616855
                                                                       D1 diagnostic:  0.06282394
 Norm of t2 vector:      0.54181667      P-energy:    -0.84034586
                                         Alpha-Beta:  -0.66489975
                                         Alpha-Alpha: -0.09147399
                                         Beta-Beta:   -0.08397212

 Spin contamination <S**2-Sz**2-Sz>     0.00216979

 Memory could be reduced to 28.85 Mwords without degradation in triples
 

 RESULTS
 =======

  Reference energy                   -267.265349121734
  UCCSD singles energy                 -0.002822213684
  UCCSD pair energy                    -0.840345864277
  UCCSD correlation energy             -0.843168077961
  Triples (T) contribution             -0.024978434181
  Total correlation energy             -0.868146512142
 
  RHF-UCCSD energy                   -268.108517199694
  RHF-UCCSD[T] energy                -268.134831573074
  RHF-UCCSD-T energy                 -268.133074024674
 !RHF-UCCSD(T) energy                -268.133495633875

 Program statistics:

 Available memory in ccsd:               999997692
 Min. memory needed in ccsd:               7337057
 Max. memory used in ccsd:                10523002
 Max. memory used in cckext:              10867977 (31 integral passes)
 Max. memory used in cckint:              12633073 ( 1 integral passes)



 **********************************************************************************************************************************
 DATASETS  * FILE   NREC   LENGTH (MB)   RECORD NAMES
              1      18        3.17       500      610      700      900      950      970     1000      129      960     1100   
                                          VAR    BASINP    GEOM    SYMINP    ZMAT    AOBASIS   BASIS     P2S    ABASIS      S 
                                         1400     1410     1200     1210     1080     1600     1650     1700   
                                           T        V       H0       H01     AOSYM     SMH    MOLCAS    OPER   

              2       3        0.77       700     1000     2100   
                                         GEOM     BASIS     RHF  

 PROGRAMS   *        TOTAL  UCCSD(T)       RHF       INT
 CPU TIMES  *       221.93    219.86      1.11      0.88
 REAL TIME  *       235.72 SEC
 DISK USED  *         1.29 GB      
 SF USED    *       553.73 MB      
 GA USED    *         0.00 MB       (max)       0.00 MB       (current)
 **********************************************************************************************************************************

        UCCSD(T)        RHF-SCF 
   -268.13349563   -267.26534912
 **********************************************************************************************************************************
 Variable memory released
