
 Primary working directories    : /tmp/320938.727.gen6.q
 Secondary working directories  : /tmp/320938.727.gen6.q
 Wavefunction directory         : /home/vulcan/mel64643/wfu/
 Main file repository           : /tmp/320938.727.gen6.q/

 ARCHNAME  : Linux/x86_64
 FC        : /opt/intel/compilers_and_libraries_2016.1.150/linux/bin/intel64/ifort
 FCVERSION : 16.0.1
 BLASLIB   : -mkl
 id        : ccgc

 Nodes     nprocs
 n076         3
 Number of processes for MPI-2 version of Molpro:   nprocs(total)=    4   nprocs(compute)=    3   nprocs(helper)=    1
 ga_uses_ma=false, calling ma_init with nominal heap.
 GA-space will be limited to   8.0 MW (determined by -G option)

 Using customized tuning parameters: mindgm=10; mindgv=16; mindgc=4; mindgr=1; noblas=0; mincuda=1000; minvec=7
 default implementation of scratch files=sf  

 ***,Frequencies for min3
 memory,1000,m
 gthresh,energy=1.0d-10,orbital=1.0d-10,oneint=1.0d-16,twoint=1.0d-16,optgrad=1.0d-6,compress=1.0d-13
 geomtyp=xyz
 
  geometry = {
  12
  arbitrary comment
     C    1.776964391707    0.711398808326   -0.047331391796
     C    0.491811976407   -0.059992870174   -0.196493901896
     C    0.450332819107   -1.536294019674    0.101417522804
     O   -0.560767745493    0.727234937526    0.254453964104
     O   -1.837840335593    0.092269037726   -0.120531795196
     H    2.585373063107    0.213706752431   -0.611492437628
     H    1.660863214809    1.742233884566   -0.426776314142
     H    2.095355673079    0.773481558863    1.017526796986
     H   -0.505172539027   -1.982977693760   -0.217988904082
     H    1.282117870340   -2.047070102278   -0.417537296919
     H    0.560882900461   -1.720302541050    1.194120192374
     H   -1.987736574319    0.551016145910   -0.967669110858
  }
 
 basis=cc-pvdz
 {rhf;maxit,200}
 {uccsd(t);maxit,200}

 Variables initialized (661), CPU time= 0.00 sec
 Commands  initialized (458), CPU time= 0.01 sec, 486 directives.
 Default parameters read. Elapsed time= 0.05 sec

 Checking input...
 Passed
1


                                         ***  PROGRAM SYSTEM MOLPRO  ***
                         Copyright, University College Cardiff Consultants Limited, 2008

                                    Version 2010.1 linked May 16 2016 07:17:05


 **********************************************************************************************************************************
 LABEL *   Frequencies for min3                                                          
 Linux-4.4.3/n076(x86_64) 64 bit mpp version                                             DATE: 07-Mar-20          TIME: 05:15:04  
 **********************************************************************************************************************************

 SHA1:             9e8077add272b0f3cad6f7df79ec5211205f459d
 **********************************************************************************************************************************

 THRESHOLDS:

 ZERO    =  1.00D-12  ONEINT  =  1.00D-16  TWOINT  =  1.00D-16  PREFAC  =  1.00D-14  LOCALI  =  1.00D-09  EORDER  =  1.00D-04
 ENERGY  =  1.00D-10  ETEST   =  0.00D+00  EDENS   =  0.00D+00  THRDEDEF=  1.00D-06  GRADIENT=  1.00D-02  STEP    =  1.00D-03
 ORBITAL =  1.00D-10  CIVEC   =  1.00D-05  COEFF   =  1.00D-04  PRINTCI =  5.00D-02  PUNCHCI =  9.90D+01  OPTGRAD =  1.00D-06
 OPTENERG=  1.00D-06  OPTSTEP =  3.00D-04  THRGRAD =  1.00D-10  COMPRESS=  1.00D-13  VARMIN  =  1.00D-07  VARMAX  =  1.00D-03
 THRDOUB =  0.00D+00  THRDIV  =  1.00D-05  THRRED  =  1.00D-07  THRPSP  =  1.00D+00  THRDC   =  1.00D-10  THRCS   =  1.00D-10
 THRNRM  =  1.00D-08  THREQ   =  0.00D+00  THRDE   =  1.00D+00  THRREF  =  1.00D-05  SPARFAC =  1.00D+00  THRDLP  =  1.00D-07
 THRDIA  =  1.00D-10  THRDLS  =  1.00D-07  THRGPS  =  0.00D+00  THRKEX  =  0.00D+00  THRDIS  =  2.00D-01  THRVAR  =  1.00D-10
 THRLOC  =  1.00D-06  THRGAP  =  1.00D-06  THRLOCT = -1.00D+00  THRGAPT = -1.00D+00  THRORB  =  1.00D-06  THRMLTP =  0.00D+00
 THRCPQCI=  1.00D-10  KEXTA   =  0.00D+00  THRCOARS=  0.00D+00  SYMTOL  =  1.00D-06  GRADTOL =  1.00D-06  THROVL  =  1.00D-08
 THRORTH =  1.00D-08  GRID    =  1.00D-06  GRIDMAX =  1.00D-03  DTMAX   =  0.00D+00

 SETTING GEOMTYP        =    XYZ

 Variable memory set to 1000000000 words,  buffer space   230000 words

 SETTING BASIS          =    CC-PVDZ


 Recomputing integrals since basis changed


 Using spherical harmonics

 Library entry C      S cc-pVDZ              selected for orbital group  1
 Library entry C      P cc-pVDZ              selected for orbital group  1
 Library entry C      D cc-pVDZ              selected for orbital group  1
 Library entry O      S cc-pVDZ              selected for orbital group  2
 Library entry O      P cc-pVDZ              selected for orbital group  2
 Library entry O      D cc-pVDZ              selected for orbital group  2
 Library entry H      S cc-pVDZ              selected for orbital group  3
 Library entry H      P cc-pVDZ              selected for orbital group  3

1PROGRAM * SEWARD (Integral evaluation for generally contracted gaussian basis sets)     Author: Roland Lindh, 1990

 Geometry written to block  1 of record 700


 Point group  C1  



 ATOMIC COORDINATES

 NR  ATOM    CHARGE       X              Y              Z

   1  C       6.00    3.357976046    1.344348918   -0.089443368
   2  C       6.00    0.929389944   -0.113370094   -0.371319661
   3  C       6.00    0.851005696   -2.903174955    0.191651343
   4  O       8.00   -1.059697462    1.374274865    0.480848305
   5  O       8.00   -3.473014908    0.174363212   -0.227772083
   6  H       1.00    4.885647037    0.403847235   -1.155553239
   7  H       1.00    3.138576618    3.292344899   -0.806490353
   8  H       1.00    3.959648370    1.461668314    1.922846978
   9  H       1.00   -0.954637748   -3.747284766   -0.411939328
  10  H       1.00    2.422851643   -3.868401865   -0.789031141
  11  H       1.00    1.059915074   -3.250900666    2.256560132
  12  H       1.00   -3.756277747    1.041269610   -1.828629605

 Bond lengths in Bohr (Angstrom)

 1-2  2.846476668  1-6  2.086842670  1-7  2.087338216  1-8  2.103588805  2-3  2.847119878
     ( 1.506290578)     ( 1.104309580)     ( 1.104571812)     ( 1.113171253)     ( 1.506630951)

  2- 4  2.625975338   3- 9  2.082592452   3-10  2.089043036   3-11  2.104377486   4- 5  2.786760112
       ( 1.389606300)       ( 1.102060461)       ( 1.105473963)       ( 1.113588605)       ( 1.474689938)

  5-12  1.842419427
       ( 0.974966370)

 Bond angles

  1-2-3  120.37866573   1-2-4  108.90555081   2-1-6  110.07116632   2-1-7  110.74629322

  2- 1- 8  111.55047017   2- 3- 9  111.32876566   2- 3-10  109.82826560   2- 3-11  110.68344975

  2- 4- 5  109.23946113   3- 2- 4  118.03986083   4- 5-12   98.71311441   6- 1- 7  108.78667071

  6- 1- 8  107.72523931   7- 1- 8  107.85616655   9- 3-10  109.21017316   9- 3-11  107.66725267

 10- 3-11  108.03469962

 NUCLEAR CHARGE:                   41
 NUMBER OF PRIMITIVE AOS:         184
 NUMBER OF SYMMETRY AOS:          179
 NUMBER OF CONTRACTIONS:          105   ( 105A   )
 NUMBER OF CORE ORBITALS:           5   (   5A   )
 NUMBER OF VALENCE ORBITALS:       27   (  27A   )


 NUCLEAR REPULSION ENERGY  183.22510932


 Eigenvalues of metric

         1 0.345E-02 0.435E-02 0.105E-01 0.141E-01 0.182E-01 0.214E-01 0.331E-01 0.345E-01


 Contracted 2-electron integrals neglected if value below      1.0D-16
 AO integral compression algorithm  1   Integral accuracy      1.0D-16

     127.402 MB (compressed) written to integral file ( 93.4%)

     Node minimum: 31.195 MB, node maximum: 49.807 MB


 NUMBER OF SORTED TWO-ELECTRON INTEGRALS:    5164320.     BUFFER LENGTH:  32768
 NUMBER OF SEGMENTS:   1  SEGMENT LENGTH:    5164320      RECORD LENGTH: 524288

 Memory used in sort:       5.72 MW

 SORT1 READ    17075251. AND WROTE     5135928. INTEGRALS IN     15 RECORDS. CPU TIME:     0.28 SEC, REAL TIME:     0.33 SEC
 SORT2 READ    15396693. AND WROTE    15487395. INTEGRALS IN    531 RECORDS. CPU TIME:     0.09 SEC, REAL TIME:     0.13 SEC

 Node minimum:     5160610.  Node maximum:     5164320. integrals

 OPERATOR DM      FOR CENTER  0  COORDINATES:    0.000000    0.000000    0.000000


 **********************************************************************************************************************************
 DATASETS  * FILE   NREC   LENGTH (MB)   RECORD NAMES
              1      18        3.17       500      610      700      900      950      970     1000      129      960     1100   
                                          VAR    BASINP    GEOM    SYMINP    ZMAT    AOBASIS   BASIS     P2S    ABASIS      S 
                                         1400     1410     1200     1210     1080     1600     1650     1700   
                                           T        V       H0       H01     AOSYM     SMH    MOLCAS    OPER   

 PROGRAMS   *        TOTAL       INT
 CPU TIMES  *         0.97      0.90
 REAL TIME  *         1.39 SEC
 DISK USED  *       315.45 MB      
 GA USED    *         0.00 MB       (max)       0.00 MB       (current)
 **********************************************************************************************************************************

1PROGRAM * RHF-SCF (OPEN SHELL)       Authors: W. Meyer, H.-J. Werner


 NUMBER OF ELECTRONS:      21+   20-    SPACE SYMMETRY=1    SPIN SYMMETRY: Doublet 
 CONVERGENCE THRESHOLDS:    1.00E-10 (Density)    1.00E-11 (Energy)
 MAX. NUMBER OF ITERATIONS:      200
 INTERPOLATION TYPE:            DIIS
 INTERPOLATION STEPS:              2 (START)      1 (STEP)
 LEVEL SHIFTS:                 -0.30 (CLOSED)  0.00 (OPEN) 



 Orbital guess generated from atomic densities. Full valence occupancy:   32

 Molecular orbital dump at record        2100.2

 ITERATION    DDIFF          GRAD             ENERGY        2-EL.EN.            DIPOLE MOMENTS         DIIS
    1      0.000D+00      0.000D+00      -267.17824139    555.824388    0.56977    0.04986   -0.74986    0
    2      0.000D+00      0.617D-02      -267.24893794    555.745324    0.41414   -0.13088   -0.59900    1
    3      0.928D-02      0.214D-02      -267.26111355    555.663198    0.39393   -0.05899   -0.62635    2
    4      0.336D-02      0.912D-03      -267.26472105    555.815406    0.37938   -0.09919   -0.64269    3
    5      0.186D-02      0.364D-03      -267.26529005    555.786761    0.38195   -0.09272   -0.63565    4
    6      0.792D-03      0.110D-03      -267.26536648    555.772981    0.38022   -0.09253   -0.63838    5
    7      0.277D-03      0.511D-04      -267.26538662    555.769975    0.37952   -0.09228   -0.63787    6
    8      0.144D-03      0.273D-04      -267.26539269    555.768022    0.37980   -0.09239   -0.63808    7
    9      0.924D-04      0.115D-04      -267.26539360    555.768338    0.37999   -0.09235   -0.63784    8
   10      0.366D-04      0.501D-05      -267.26539376    555.768950    0.38025   -0.09236   -0.63790    9
   11      0.146D-04      0.196D-05      -267.26539379    555.768792    0.38030   -0.09236   -0.63791    9
   12      0.651D-05      0.671D-06      -267.26539379    555.768926    0.38032   -0.09236   -0.63790    9
   13      0.227D-05      0.226D-06      -267.26539379    555.768842    0.38032   -0.09236   -0.63790    9
   14      0.632D-06      0.757D-07      -267.26539379    555.768851    0.38032   -0.09236   -0.63790    9
   15      0.192D-06      0.300D-07      -267.26539379    555.768847    0.38032   -0.09236   -0.63790    9
   16      0.824D-07      0.145D-07      -267.26539379    555.768848    0.38032   -0.09236   -0.63790    9
   17      0.374D-07      0.750D-08      -267.26539379    555.768848    0.38032   -0.09236   -0.63790    9
   18      0.222D-07      0.341D-08      -267.26539379    555.768848    0.38032   -0.09236   -0.63790    9
   19      0.114D-07      0.133D-08      -267.26539379    555.768848    0.38032   -0.09236   -0.63790    9
   20      0.444D-08      0.566D-09      -267.26539379    555.768848    0.38032   -0.09236   -0.63790    9
   21      0.165D-08      0.286D-09      -267.26539379    555.768848    0.38032   -0.09236   -0.63790    9
   22      0.753D-09      0.161D-09      -267.26539379    555.768848    0.38032   -0.09236   -0.63790    9
   23      0.445D-09      0.795D-10      -267.26539379    555.768848    0.38032   -0.09236   -0.63790    9
   24      0.263D-09      0.316D-10      -267.26539379    555.768848    0.38032   -0.09236   -0.63790    9
   25      0.931D-10      0.129D-10      -267.26539379    555.768848    0.38032   -0.09236   -0.63790    0

 Final alpha occupancy:  21
 Final beta  occupancy:  20

 !RHF STATE 1.1 Energy               -267.265393789551
 Nuclear energy                       183.22510932
 One-electron energy                 -728.37492733
 Two-electron energy                  277.88442422
 Virial quotient                       -1.00154908
 !RHF STATE 1.1 Dipole moment           0.38032322    -0.09236123    -0.63789994
 Dipole moment /Debye                   0.96662188    -0.23474346    -1.62127372

 Orbital energies:

         1.1          2.1          3.1          4.1          5.1          6.1          7.1          8.1          9.1         10.1
    -20.630456   -20.628874   -11.279281   -11.237701   -11.232114    -1.470109    -1.240613    -1.023235    -0.945458    -0.768518

        11.1         12.1         13.1         14.1         15.1         16.1         17.1         18.1         19.1         20.1
     -0.704494    -0.643104    -0.626793    -0.588762    -0.545032    -0.543367    -0.539126    -0.517059    -0.493015    -0.469771

        21.1         22.1         23.1
     -0.352315     0.181262     0.183568


 **********************************************************************************************************************************
 DATASETS  * FILE   NREC   LENGTH (MB)   RECORD NAMES
              1      18        3.17       500      610      700      900      950      970     1000      129      960     1100   
                                          VAR    BASINP    GEOM    SYMINP    ZMAT    AOBASIS   BASIS     P2S    ABASIS      S 
                                         1400     1410     1200     1210     1080     1600     1650     1700   
                                           T        V       H0       H01     AOSYM     SMH    MOLCAS    OPER   

              2       3        0.77       700     1000     2100   
                                         GEOM     BASIS     RHF  

 PROGRAMS   *        TOTAL       RHF       INT
 CPU TIMES  *         2.21      1.24      0.90
 REAL TIME  *         2.79 SEC
 DISK USED  *       332.02 MB      
 SF USED    *         0.04 MB      
 GA USED    *         0.00 MB       (max)       0.00 MB       (current)
 **********************************************************************************************************************************


1PROGRAM * CCSD (Unrestricted open-shell coupled cluster)     Authors: C. Hampel, H.-J. Werner, 1991, M. Deegan, P.J. Knowles, 1992


 Convergence thresholds:  THRVAR = 1.00D-08  THRDEN = 1.00D-10

 CCSD(T)     terms to be evaluated (factor= 1.000)


 Number of core orbitals:           5 (   5 )
 Number of closed-shell orbitals:  15 (  15 )
 Number of active  orbitals:        1 (   1 )
 Number of external orbitals:      84 (  84 )

 Memory could be reduced to 24.91 Mwords without degradation in triples

 Number of N-1 electron functions:              31
 Number of N-2 electron functions:             465
 Number of singly external CSFs:              2635
 Number of doubly external CSFs:           2537250
 Total number of CSFs:                     2539885

 Molecular orbitals read from record     2100.2  Type=RHF/CANONICAL (state 1.1)

 Integral transformation finished. Total CPU:   0.70 sec, npass=  1  Memory used:  12.63 MW

 Starting RMP2 calculation

 ITER.      SQ.NORM     CORR.ENERGY   TOTAL ENERGY   ENERGY CHANGE        DEN1      VAR(S)    VAR(P)  DIIS     TIME
   1      1.24302089    -0.78638060  -268.05177439    -0.78638060    -0.00304948  0.20D-04  0.11D-02  1  1     0.95
   2      1.24566185    -0.78966925  -268.05506304    -0.00328864    -0.00000474  0.54D-06  0.19D-05  2  2     1.19
   3      1.24572738    -0.78971130  -268.05510509    -0.00004205    -0.00000003  0.16D-07  0.68D-08  3  3     1.45
   4      1.24572834    -0.78971130  -268.05510509    -0.00000000    -0.00000000  0.27D-09  0.38D-10  4  4     1.73
   5      1.24572842    -0.78971134  -268.05510513    -0.00000003    -0.00000000  0.25D-11  0.65D-12  5  5     2.03
   6      1.24572843    -0.78971134  -268.05510513    -0.00000001    -0.00000000  0.28D-13  0.86D-14  6  6     2.36
   7      1.24572843    -0.78971134  -268.05510513     0.00000000    -0.00000000  0.47D-15  0.12D-15  6  1     2.68
   8      1.24572843    -0.78971134  -268.05510513     0.00000000    -0.00000000  0.60D-17  0.13D-17  6  2     3.01

 Norm of t1 vector:      0.03893084      S-energy:    -0.00227150      T1 diagnostic:  0.00055026
 Norm of t2 vector:      0.49417894      P-energy:    -0.78743985
                                         Alpha-Beta:  -0.59341520
                                         Alpha-Alpha: -0.10094294
                                         Beta-Beta:   -0.09308170

 Spin contamination <S**2-Sz**2-Sz>     0.00104029
  Reference energy                   -267.265393789551
  RHF-RMP2 correlation energy          -0.789711341707
 !RHF-RMP2 energy                    -268.055105131257

 Starting UCCSD calculation

 ITER.      SQ.NORM     CORR.ENERGY   TOTAL ENERGY   ENERGY CHANGE        DEN1      VAR(S)    VAR(P)  DIIS     TIME
   1      1.26278733    -0.80904613  -268.07443992    -0.80904613    -0.02515566  0.38D-02  0.59D-02  1  1     7.61
   2      1.29155843    -0.83645398  -268.10184777    -0.02740785    -0.00201127  0.22D-03  0.66D-03  2  2    12.19
   3      1.30149969    -0.84095186  -268.10634565    -0.00449788    -0.00032470  0.19D-03  0.56D-04  3  3    16.82
   4      1.30641433    -0.84242921  -268.10782300    -0.00147735    -0.00007211  0.43D-04  0.14D-04  4  4    21.46
   5      1.30914543    -0.84281745  -268.10821124    -0.00038824    -0.00002368  0.19D-04  0.32D-05  5  5    26.12
   6      1.31108551    -0.84302201  -268.10841580    -0.00020456    -0.00000646  0.42D-05  0.12D-05  6  6    30.82
   7      1.31203522    -0.84308081  -268.10847460    -0.00005880    -0.00000208  0.14D-05  0.37D-06  6  2    35.50
   8      1.31247697    -0.84312351  -268.10851729    -0.00004269    -0.00000065  0.45D-06  0.11D-06  6  1    40.17
   9      1.31266225    -0.84312809  -268.10852188    -0.00000459    -0.00000022  0.15D-06  0.35D-07  6  4    44.86
  10      1.31272540    -0.84313102  -268.10852481    -0.00000293    -0.00000005  0.35D-07  0.95D-08  6  3    49.54
  11      1.31275490    -0.84312976  -268.10852355     0.00000126    -0.00000002  0.13D-07  0.28D-08  6  5    54.22
  12      1.31276529    -0.84312950  -268.10852329     0.00000026    -0.00000000  0.26D-08  0.95D-09  6  6    58.91
  13      1.31276414    -0.84312858  -268.10852237     0.00000091    -0.00000000  0.96D-09  0.28D-09  6  2    63.59
  14      1.31275893    -0.84312774  -268.10852153     0.00000084    -0.00000000  0.21D-09  0.67D-10  6  1    68.30
  15      1.31275486    -0.84312715  -268.10852094     0.00000059    -0.00000000  0.78D-10  0.19D-10  6  4    72.99
  16      1.31275167    -0.84312677  -268.10852056     0.00000038    -0.00000000  0.28D-10  0.63D-11  6  3    77.82
  17      1.31274947    -0.84312653  -268.10852032     0.00000024    -0.00000000  0.10D-10  0.24D-11  6  5    82.52
  18      1.31274856    -0.84312647  -268.10852026     0.00000006    -0.00000000  0.41D-11  0.87D-12  6  6    87.21
  19      1.31274795    -0.84312644  -268.10852023     0.00000003    -0.00000000  0.16D-11  0.37D-12  6  2    91.90
  20      1.31274764    -0.84312642  -268.10852021     0.00000001    -0.00000000  0.60D-12  0.13D-12  6  1    96.59
  21      1.31274747    -0.84312641  -268.10852020     0.00000001    -0.00000000  0.28D-12  0.58D-13  6  4   101.28
  22      1.31274735    -0.84312641  -268.10852020     0.00000001    -0.00000000  0.74D-13  0.21D-13  6  3   105.97
  23      1.31274729    -0.84312640  -268.10852019     0.00000000    -0.00000000  0.21D-13  0.63D-14  6  5   110.65
  24      1.31274729    -0.84312640  -268.10852019    -0.00000000    -0.00000000  0.67D-14  0.22D-14  6  6   115.32
  25      1.31274729    -0.84312641  -268.10852019    -0.00000000    -0.00000000  0.21D-14  0.52D-15  6  2   119.99
  26      1.31274730    -0.84312641  -268.10852020    -0.00000000    -0.00000000  0.77D-15  0.15D-15  6  1   124.68
  27      1.31274731    -0.84312641  -268.10852020    -0.00000000    -0.00000000  0.20D-15  0.62D-16  6  3   129.37
  28      1.31274731    -0.84312641  -268.10852020    -0.00000000    -0.00000000  0.30D-16  0.11D-16  6  4   134.06
  29      1.31274731    -0.84312641  -268.10852020    -0.00000000    -0.00000000  0.71D-17  0.29D-17  6  5   138.75
  30      1.31274732    -0.84312641  -268.10852020    -0.00000000    -0.00000000  0.15D-17  0.54D-18  6  6   143.44
  31      1.31274732    -0.84312641  -268.10852020    -0.00000000    -0.00000000  0.35D-18  0.10D-18  6  2   148.14

 Norm of t1 vector:      0.13873298      S-energy:    -0.00282113      T1 diagnostic:  0.01617144
                                                                       D1 diagnostic:  0.06283301
 Norm of t2 vector:      0.54175684      P-energy:    -0.84030527
                                         Alpha-Beta:  -0.66485766
                                         Alpha-Alpha: -0.09147523
                                         Beta-Beta:   -0.08397238

 Spin contamination <S**2-Sz**2-Sz>     0.00217224

 Memory could be reduced to 28.85 Mwords without degradation in triples
 

 RESULTS
 =======

  Reference energy                   -267.265393789551
  UCCSD singles energy                 -0.002821134962
  UCCSD pair energy                    -0.840305272319
  UCCSD correlation energy             -0.843126407281
  Triples (T) contribution             -0.024974831928
  Total correlation energy             -0.868101239209
 
  RHF-UCCSD energy                   -268.108520196831
  RHF-UCCSD[T] energy                -268.134831175838
  RHF-UCCSD-T energy                 -268.133073453657
 !RHF-UCCSD(T) energy                -268.133495028759

 Program statistics:

 Available memory in ccsd:               999997692
 Min. memory needed in ccsd:               7337057
 Max. memory used in ccsd:                10523002
 Max. memory used in cckext:              10867977 (31 integral passes)
 Max. memory used in cckint:              12633073 ( 1 integral passes)



 **********************************************************************************************************************************
 DATASETS  * FILE   NREC   LENGTH (MB)   RECORD NAMES
              1      18        3.17       500      610      700      900      950      970     1000      129      960     1100   
                                          VAR    BASINP    GEOM    SYMINP    ZMAT    AOBASIS   BASIS     P2S    ABASIS      S 
                                         1400     1410     1200     1210     1080     1600     1650     1700   
                                           T        V       H0       H01     AOSYM     SMH    MOLCAS    OPER   

              2       3        0.77       700     1000     2100   
                                         GEOM     BASIS     RHF  

 PROGRAMS   *        TOTAL  UCCSD(T)       RHF       INT
 CPU TIMES  *       186.05    183.83      1.24      0.90
 REAL TIME  *       195.60 SEC
 DISK USED  *         1.30 GB      
 SF USED    *       553.73 MB      
 GA USED    *         0.00 MB       (max)       0.00 MB       (current)
 **********************************************************************************************************************************

        UCCSD(T)        RHF-SCF 
   -268.13349503   -267.26539379
 **********************************************************************************************************************************
 Variable memory released
