
 Primary working directories    : /tmp/320938.240.gen4.q
 Secondary working directories  : /tmp/320938.240.gen4.q
 Wavefunction directory         : /home/vulcan/mel64643/wfu/
 Main file repository           : /tmp/320938.240.gen4.q/

 ARCHNAME  : Linux/x86_64
 FC        : /opt/intel/compilers_and_libraries_2016.1.150/linux/bin/intel64/ifort
 FCVERSION : 16.0.1
 BLASLIB   : -mkl
 id        : ccgc

 Nodes     nprocs
 n055         3
 Number of processes for MPI-2 version of Molpro:   nprocs(total)=    4   nprocs(compute)=    3   nprocs(helper)=    1
 ga_uses_ma=false, calling ma_init with nominal heap.
 GA-space will be limited to   8.0 MW (determined by -G option)

 Using customized tuning parameters: mindgm=10; mindgv=16; mindgc=4; mindgr=1; noblas=0; mincuda=1000; minvec=7
 default implementation of scratch files=sf  

 ***,Frequencies for min3
 memory,1000,m
 gthresh,energy=1.0d-10,orbital=1.0d-10,oneint=1.0d-16,twoint=1.0d-16,optgrad=1.0d-6,compress=1.0d-13
 geomtyp=xyz
 
  geometry = {
  12
  arbitrary comment
     C    1.776964391707    0.711398808326   -0.047331391796
     C    0.491811976407   -0.060647109602   -0.196481536427
     C    0.450429566951   -1.536073088709    0.100935328596
     O   -0.560846021589    0.727447065562    0.254491090274
     O   -1.837840165572    0.092304925162   -0.120463400145
     H    2.585432838816    0.211547413490   -0.610824351861
     H    1.660392251849    1.742985907005   -0.426521624954
     H    2.094942019161    0.774621493111    1.018024469517
     H   -0.504763952808   -1.982711284535   -0.219184192430
     H    1.282030287430   -2.047121021620   -0.416001453567
     H    0.561692484726   -1.718609331244    1.195701895864
     H   -1.987954680644    0.550597972572   -0.967092344845
  }
 
 basis=cc-pvdz
 {rhf;maxit,200}
 {uccsd(t);maxit,200}

 Variables initialized (661), CPU time= 0.00 sec
 Commands  initialized (458), CPU time= 0.00 sec, 486 directives.
 Default parameters read. Elapsed time= 0.05 sec

 Checking input...
 Passed
1


                                         ***  PROGRAM SYSTEM MOLPRO  ***
                         Copyright, University College Cardiff Consultants Limited, 2008

                                    Version 2010.1 linked May 16 2016 07:17:05


 **********************************************************************************************************************************
 LABEL *   Frequencies for min3                                                          
 Linux-4.4.3/n055(x86_64) 64 bit mpp version                                             DATE: 07-Mar-20          TIME: 02:21:50  
 **********************************************************************************************************************************

 SHA1:             9e8077add272b0f3cad6f7df79ec5211205f459d
 **********************************************************************************************************************************

 THRESHOLDS:

 ZERO    =  1.00D-12  ONEINT  =  1.00D-16  TWOINT  =  1.00D-16  PREFAC  =  1.00D-14  LOCALI  =  1.00D-09  EORDER  =  1.00D-04
 ENERGY  =  1.00D-10  ETEST   =  0.00D+00  EDENS   =  0.00D+00  THRDEDEF=  1.00D-06  GRADIENT=  1.00D-02  STEP    =  1.00D-03
 ORBITAL =  1.00D-10  CIVEC   =  1.00D-05  COEFF   =  1.00D-04  PRINTCI =  5.00D-02  PUNCHCI =  9.90D+01  OPTGRAD =  1.00D-06
 OPTENERG=  1.00D-06  OPTSTEP =  3.00D-04  THRGRAD =  1.00D-10  COMPRESS=  1.00D-13  VARMIN  =  1.00D-07  VARMAX  =  1.00D-03
 THRDOUB =  0.00D+00  THRDIV  =  1.00D-05  THRRED  =  1.00D-07  THRPSP  =  1.00D+00  THRDC   =  1.00D-10  THRCS   =  1.00D-10
 THRNRM  =  1.00D-08  THREQ   =  0.00D+00  THRDE   =  1.00D+00  THRREF  =  1.00D-05  SPARFAC =  1.00D+00  THRDLP  =  1.00D-07
 THRDIA  =  1.00D-10  THRDLS  =  1.00D-07  THRGPS  =  0.00D+00  THRKEX  =  0.00D+00  THRDIS  =  2.00D-01  THRVAR  =  1.00D-10
 THRLOC  =  1.00D-06  THRGAP  =  1.00D-06  THRLOCT = -1.00D+00  THRGAPT = -1.00D+00  THRORB  =  1.00D-06  THRMLTP =  0.00D+00
 THRCPQCI=  1.00D-10  KEXTA   =  0.00D+00  THRCOARS=  0.00D+00  SYMTOL  =  1.00D-06  GRADTOL =  1.00D-06  THROVL  =  1.00D-08
 THRORTH =  1.00D-08  GRID    =  1.00D-06  GRIDMAX =  1.00D-03  DTMAX   =  0.00D+00

 SETTING GEOMTYP        =    XYZ

 Variable memory set to 1000000000 words,  buffer space   230000 words

 SETTING BASIS          =    CC-PVDZ


 Recomputing integrals since basis changed


 Using spherical harmonics

 Library entry C      S cc-pVDZ              selected for orbital group  1
 Library entry C      P cc-pVDZ              selected for orbital group  1
 Library entry C      D cc-pVDZ              selected for orbital group  1
 Library entry O      S cc-pVDZ              selected for orbital group  2
 Library entry O      P cc-pVDZ              selected for orbital group  2
 Library entry O      D cc-pVDZ              selected for orbital group  2
 Library entry H      S cc-pVDZ              selected for orbital group  3
 Library entry H      P cc-pVDZ              selected for orbital group  3

1PROGRAM * SEWARD (Integral evaluation for generally contracted gaussian basis sets)     Author: Roland Lindh, 1990

 Geometry written to block  1 of record 700


 Point group  C1  



 ATOMIC COORDINATES

 NR  ATOM    CHARGE       X              Y              Z

   1  C       6.00    3.357976046    1.344348918   -0.089443368
   2  C       6.00    0.929389944   -0.114606428   -0.371296294
   3  C       6.00    0.851188523   -2.902757456    0.190740128
   4  O       8.00   -1.059845383    1.374675729    0.480918464
   5  O       8.00   -3.473014586    0.174431029   -0.227642835
   6  H       1.00    4.885759997    0.399766675   -1.154290739
   7  H       1.00    3.137686627    3.293766015   -0.806009060
   8  H       1.00    3.958866677    1.463822477    1.923787442
   9  H       1.00   -0.953865632   -3.746781325   -0.414198096
  10  H       1.00    2.422686135   -3.868498089   -0.786128818
  11  H       1.00    1.061444966   -3.247700963    2.259549118
  12  H       1.00   -3.756689908    1.040479377   -1.827539676

 Bond lengths in Bohr (Angstrom)

 1-2  2.847107695  1-6  2.088123401  1-7  2.088593028  1-8  2.104386319  2-3  2.845309571
     ( 1.506624504)     ( 1.104987313)     ( 1.105235830)     ( 1.113593279)     ( 1.505672978)

  2- 4  2.627030361   3- 9  2.082437766   3-10  2.087230858   3-11  2.107881503   4- 5  2.786760137
       ( 1.390164594)       ( 1.101978605)       ( 1.104515000)       ( 1.115442851)       ( 1.474689951)

  5-12  1.841244505
       ( 0.974344628)

 Bond angles

  1-2-3  120.39971132   1-2-4  108.86205793   2-1-6  109.98741727   2-1-7  110.75392417

  2- 1- 8  111.55340961   2- 3- 9  111.32177166   2- 3-10  109.89229764   2- 3-11  110.57817586

  2- 4- 5  109.21169409   3- 2- 4  118.07504146   4- 5-12   98.72910244   6- 1- 7  108.93089574

  6- 1- 8  107.73582786   7- 1- 8  107.77924723   9- 3-10  109.21614470   9- 3-11  107.77294046

 10- 3-11  107.97055853

 NUCLEAR CHARGE:                   41
 NUMBER OF PRIMITIVE AOS:         184
 NUMBER OF SYMMETRY AOS:          179
 NUMBER OF CONTRACTIONS:          105   ( 105A   )
 NUMBER OF CORE ORBITALS:           5   (   5A   )
 NUMBER OF VALENCE ORBITALS:       27   (  27A   )


 NUCLEAR REPULSION ENERGY  183.22084539


 Eigenvalues of metric

         1 0.345E-02 0.435E-02 0.105E-01 0.141E-01 0.182E-01 0.214E-01 0.331E-01 0.345E-01


 Contracted 2-electron integrals neglected if value below      1.0D-16
 AO integral compression algorithm  1   Integral accuracy      1.0D-16

     127.402 MB (compressed) written to integral file ( 93.4%)

     Node minimum: 41.681 MB, node maximum: 44.040 MB


 NUMBER OF SORTED TWO-ELECTRON INTEGRALS:    5164320.     BUFFER LENGTH:  32768
 NUMBER OF SEGMENTS:   1  SEGMENT LENGTH:    5164320      RECORD LENGTH: 524288

 Memory used in sort:       5.72 MW

 SORT1 READ    17075251. AND WROTE     5135916. INTEGRALS IN     15 RECORDS. CPU TIME:     0.22 SEC, REAL TIME:     0.26 SEC
 SORT2 READ    15396638. AND WROTE    15487395. INTEGRALS IN    477 RECORDS. CPU TIME:     0.06 SEC, REAL TIME:     0.11 SEC

 Node minimum:     5160610.  Node maximum:     5164320. integrals

 OPERATOR DM      FOR CENTER  0  COORDINATES:    0.000000    0.000000    0.000000


 **********************************************************************************************************************************
 DATASETS  * FILE   NREC   LENGTH (MB)   RECORD NAMES
              1      18        3.17       500      610      700      900      950      970     1000      129      960     1100   
                                          VAR    BASINP    GEOM    SYMINP    ZMAT    AOBASIS   BASIS     P2S    ABASIS      S 
                                         1400     1410     1200     1210     1080     1600     1650     1700   
                                           T        V       H0       H01     AOSYM     SMH    MOLCAS    OPER   

 PROGRAMS   *        TOTAL       INT
 CPU TIMES  *         0.93      0.88
 REAL TIME  *         1.39 SEC
 DISK USED  *       305.44 MB      
 GA USED    *         0.00 MB       (max)       0.00 MB       (current)
 **********************************************************************************************************************************

1PROGRAM * RHF-SCF (OPEN SHELL)       Authors: W. Meyer, H.-J. Werner


 NUMBER OF ELECTRONS:      21+   20-    SPACE SYMMETRY=1    SPIN SYMMETRY: Doublet 
 CONVERGENCE THRESHOLDS:    1.00E-10 (Density)    1.00E-11 (Energy)
 MAX. NUMBER OF ITERATIONS:      200
 INTERPOLATION TYPE:            DIIS
 INTERPOLATION STEPS:              2 (START)      1 (STEP)
 LEVEL SHIFTS:                 -0.30 (CLOSED)  0.00 (OPEN) 



 Orbital guess generated from atomic densities. Full valence occupancy:   32

 Molecular orbital dump at record        2100.2

 ITERATION    DDIFF          GRAD             ENERGY        2-EL.EN.            DIPOLE MOMENTS         DIIS
    1      0.000D+00      0.000D+00      -267.17825637    555.816148    0.57005    0.04769   -0.74770    0
    2      0.000D+00      0.617D-02      -267.24892229    555.737189    0.41465   -0.13254   -0.59885    1
    3      0.927D-02      0.214D-02      -267.26109157    555.655028    0.39443   -0.06044   -0.62632    2
    4      0.336D-02      0.912D-03      -267.26469284    555.807269    0.37993   -0.10058   -0.64290    3
    5      0.186D-02      0.363D-03      -267.26526002    555.778675    0.38250   -0.09408   -0.63595    4
    6      0.792D-03      0.110D-03      -267.26533597    555.764893    0.38077   -0.09389   -0.63869    5
    7      0.277D-03      0.510D-04      -267.26535597    555.761901    0.38008   -0.09363   -0.63819    6
    8      0.143D-03      0.272D-04      -267.26536199    555.759946    0.38035   -0.09375   -0.63840    7
    9      0.921D-04      0.115D-04      -267.26536290    555.760267    0.38054   -0.09371   -0.63816    8
   10      0.365D-04      0.500D-05      -267.26536306    555.760875    0.38080   -0.09372   -0.63822    9
   11      0.146D-04      0.196D-05      -267.26536309    555.760717    0.38085   -0.09371   -0.63823    9
   12      0.649D-05      0.670D-06      -267.26536309    555.760852    0.38087   -0.09371   -0.63822    9
   13      0.227D-05      0.226D-06      -267.26536309    555.760767    0.38087   -0.09371   -0.63822    9
   14      0.632D-06      0.757D-07      -267.26536309    555.760776    0.38087   -0.09372   -0.63822    9
   15      0.193D-06      0.300D-07      -267.26536309    555.760772    0.38087   -0.09372   -0.63822    9
   16      0.824D-07      0.145D-07      -267.26536309    555.760773    0.38087   -0.09372   -0.63822    9
   17      0.373D-07      0.750D-08      -267.26536309    555.760773    0.38087   -0.09372   -0.63822    9
   18      0.222D-07      0.341D-08      -267.26536309    555.760774    0.38087   -0.09372   -0.63822    9
   19      0.114D-07      0.133D-08      -267.26536309    555.760774    0.38087   -0.09372   -0.63822    9
   20      0.443D-08      0.564D-09      -267.26536309    555.760774    0.38087   -0.09372   -0.63822    9
   21      0.165D-08      0.285D-09      -267.26536309    555.760774    0.38087   -0.09372   -0.63822    9
   22      0.750D-09      0.161D-09      -267.26536309    555.760774    0.38087   -0.09372   -0.63822    9
   23      0.445D-09      0.794D-10      -267.26536309    555.760774    0.38087   -0.09372   -0.63822    9
   24      0.263D-09      0.316D-10      -267.26536309    555.760774    0.38087   -0.09372   -0.63822    9
   25      0.929D-10      0.129D-10      -267.26536309    555.760774    0.38087   -0.09372   -0.63822    0

 Final alpha occupancy:  21
 Final beta  occupancy:  20

 !RHF STATE 1.1 Energy               -267.265363090267
 Nuclear energy                       183.22084539
 One-electron energy                 -728.36659526
 Two-electron energy                  277.88038678
 Virial quotient                       -1.00155731
 !RHF STATE 1.1 Dipole moment           0.38087439    -0.09371607    -0.63822052
 Dipole moment /Debye                   0.96802274    -0.23818690    -1.62208852

 Orbital energies:

         1.1          2.1          3.1          4.1          5.1          6.1          7.1          8.1          9.1         10.1
    -20.630470   -20.628752   -11.279299   -11.237915   -11.232235    -1.470054    -1.240565    -1.023347    -0.945398    -0.768389

        11.1         12.1         13.1         14.1         15.1         16.1         17.1         18.1         19.1         20.1
     -0.704563    -0.643077    -0.626691    -0.588708    -0.544944    -0.543621    -0.538906    -0.516994    -0.492893    -0.469934

        21.1         22.1         23.1
     -0.352312     0.181299     0.183571


 **********************************************************************************************************************************
 DATASETS  * FILE   NREC   LENGTH (MB)   RECORD NAMES
              1      18        3.17       500      610      700      900      950      970     1000      129      960     1100   
                                          VAR    BASINP    GEOM    SYMINP    ZMAT    AOBASIS   BASIS     P2S    ABASIS      S 
                                         1400     1410     1200     1210     1080     1600     1650     1700   
                                           T        V       H0       H01     AOSYM     SMH    MOLCAS    OPER   

              2       3        0.77       700     1000     2100   
                                         GEOM     BASIS     RHF  

 PROGRAMS   *        TOTAL       RHF       INT
 CPU TIMES  *         2.03      1.10      0.88
 REAL TIME  *         2.64 SEC
 DISK USED  *       322.00 MB      
 SF USED    *         0.04 MB      
 GA USED    *         0.00 MB       (max)       0.00 MB       (current)
 **********************************************************************************************************************************


1PROGRAM * CCSD (Unrestricted open-shell coupled cluster)     Authors: C. Hampel, H.-J. Werner, 1991, M. Deegan, P.J. Knowles, 1992


 Convergence thresholds:  THRVAR = 1.00D-08  THRDEN = 1.00D-10

 CCSD(T)     terms to be evaluated (factor= 1.000)


 Number of core orbitals:           5 (   5 )
 Number of closed-shell orbitals:  15 (  15 )
 Number of active  orbitals:        1 (   1 )
 Number of external orbitals:      84 (  84 )

 Memory could be reduced to 24.91 Mwords without degradation in triples

 Number of N-1 electron functions:              31
 Number of N-2 electron functions:             465
 Number of singly external CSFs:              2635
 Number of doubly external CSFs:           2537250
 Total number of CSFs:                     2539885

 Molecular orbitals read from record     2100.2  Type=RHF/CANONICAL (state 1.1)

 Integral transformation finished. Total CPU:   0.91 sec, npass=  1  Memory used:  12.63 MW

 Starting RMP2 calculation

 ITER.      SQ.NORM     CORR.ENERGY   TOTAL ENERGY   ENERGY CHANGE        DEN1      VAR(S)    VAR(P)  DIIS     TIME
   1      1.24305066    -0.78640209  -268.05176518    -0.78640209    -0.00305027  0.20D-04  0.11D-02  1  1     1.25
   2      1.24569275    -0.78969162  -268.05505471    -0.00328953    -0.00000475  0.54D-06  0.19D-05  2  2     1.55
   3      1.24575835    -0.78973371  -268.05509680    -0.00004209    -0.00000003  0.16D-07  0.68D-08  3  3     1.89
   4      1.24575931    -0.78973371  -268.05509680    -0.00000000    -0.00000000  0.27D-09  0.38D-10  4  4     2.26
   5      1.24575939    -0.78973375  -268.05509684    -0.00000003    -0.00000000  0.25D-11  0.65D-12  5  5     2.65
   6      1.24575940    -0.78973375  -268.05509684    -0.00000001    -0.00000000  0.28D-13  0.87D-14  6  6     3.07
   7      1.24575940    -0.78973375  -268.05509684     0.00000000    -0.00000000  0.47D-15  0.12D-15  6  1     3.48
   8      1.24575940    -0.78973375  -268.05509684     0.00000000    -0.00000000  0.60D-17  0.13D-17  6  2     3.90

 Norm of t1 vector:      0.03894540      S-energy:    -0.00227252      T1 diagnostic:  0.00055062
 Norm of t2 vector:      0.49420913      P-energy:    -0.78746123
                                         Alpha-Beta:  -0.59343548
                                         Alpha-Alpha: -0.10094389
                                         Beta-Beta:   -0.09308186

 Spin contamination <S**2-Sz**2-Sz>     0.00104086
  Reference energy                   -267.265363090267
  RHF-RMP2 correlation energy          -0.789733752625
 !RHF-RMP2 energy                    -268.055096842891

 Starting UCCSD calculation

 ITER.      SQ.NORM     CORR.ENERGY   TOTAL ENERGY   ENERGY CHANGE        DEN1      VAR(S)    VAR(P)  DIIS     TIME
   1      1.26282273    -0.80906714  -268.07443023    -0.80906714    -0.02516024  0.38D-02  0.59D-02  1  1     9.30
   2      1.29160369    -0.83648006  -268.10184315    -0.02741292    -0.00201203  0.22D-03  0.66D-03  2  2    14.68
   3      1.30154855    -0.84097963  -268.10634272    -0.00449957    -0.00032472  0.19D-03  0.56D-04  3  3    20.12
   4      1.30646259    -0.84245738  -268.10782047    -0.00147775    -0.00007203  0.43D-04  0.14D-04  4  4    25.56
   5      1.30919006    -0.84284536  -268.10820845    -0.00038798    -0.00002363  0.19D-04  0.32D-05  5  5    31.63
   6      1.31112499    -0.84304954  -268.10841263    -0.00020418    -0.00000644  0.42D-05  0.12D-05  6  6    39.36
   7      1.31207100    -0.84310815  -268.10847124    -0.00005861    -0.00000207  0.14D-05  0.37D-06  6  2    45.98
   8      1.31251071    -0.84315073  -268.10851382    -0.00004257    -0.00000065  0.44D-06  0.11D-06  6  1    52.44
   9      1.31269482    -0.84315527  -268.10851836    -0.00000455    -0.00000022  0.15D-06  0.35D-07  6  4    58.90
  10      1.31275771    -0.84315820  -268.10852129    -0.00000293    -0.00000005  0.34D-07  0.95D-08  6  3    65.36
  11      1.31278703    -0.84315693  -268.10852002     0.00000127    -0.00000002  0.13D-07  0.28D-08  6  5    71.83
  12      1.31279732    -0.84315666  -268.10851975     0.00000027    -0.00000000  0.26D-08  0.95D-09  6  6    78.32
  13      1.31279617    -0.84315575  -268.10851884     0.00000091    -0.00000000  0.96D-09  0.28D-09  6  2    84.12
  14      1.31279098    -0.84315491  -268.10851800     0.00000084    -0.00000000  0.21D-09  0.67D-10  6  1    89.61
  15      1.31278692    -0.84315432  -268.10851741     0.00000058    -0.00000000  0.78D-10  0.19D-10  6  4    95.11
  16      1.31278375    -0.84315394  -268.10851703     0.00000038    -0.00000000  0.28D-10  0.62D-11  6  3   100.59
  17      1.31278156    -0.84315370  -268.10851679     0.00000024    -0.00000000  0.10D-10  0.24D-11  6  5   106.09
  18      1.31278066    -0.84315364  -268.10851673     0.00000006    -0.00000000  0.40D-11  0.86D-12  6  6   111.57
  19      1.31278005    -0.84315361  -268.10851670     0.00000003    -0.00000000  0.16D-11  0.37D-12  6  2   117.07
  20      1.31277973    -0.84315360  -268.10851669     0.00000001    -0.00000000  0.59D-12  0.13D-12  6  1   122.59
  21      1.31277957    -0.84315359  -268.10851668     0.00000001    -0.00000000  0.28D-12  0.57D-13  6  4   128.14
  22      1.31277945    -0.84315358  -268.10851667     0.00000001    -0.00000000  0.73D-13  0.21D-13  6  3   133.63
  23      1.31277939    -0.84315357  -268.10851666     0.00000000    -0.00000000  0.21D-13  0.62D-14  6  5   139.15
  24      1.31277939    -0.84315357  -268.10851667    -0.00000000    -0.00000000  0.67D-14  0.22D-14  6  6   144.67
  25      1.31277939    -0.84315358  -268.10851667    -0.00000000    -0.00000000  0.21D-14  0.52D-15  6  2   150.17
  26      1.31277940    -0.84315358  -268.10851667    -0.00000000    -0.00000000  0.76D-15  0.15D-15  6  1   155.68
  27      1.31277941    -0.84315358  -268.10851667    -0.00000000    -0.00000000  0.20D-15  0.62D-16  6  3   161.21
  28      1.31277941    -0.84315358  -268.10851667    -0.00000000    -0.00000000  0.29D-16  0.11D-16  6  4   166.69
  29      1.31277942    -0.84315358  -268.10851667    -0.00000000    -0.00000000  0.70D-17  0.29D-17  6  5   172.20
  30      1.31277942    -0.84315358  -268.10851667    -0.00000000    -0.00000000  0.15D-17  0.53D-18  6  6   177.71
  31      1.31277942    -0.84315358  -268.10851667    -0.00000000    -0.00000000  0.35D-18  0.10D-18  6  2   183.21

 Norm of t1 vector:      0.13868942      S-energy:    -0.00282229      T1 diagnostic:  0.01616545
                                                                       D1 diagnostic:  0.06281815
 Norm of t2 vector:      0.54179762      P-energy:    -0.84033128
                                         Alpha-Beta:  -0.66488583
                                         Alpha-Alpha: -0.09147415
                                         Beta-Beta:   -0.08397131

 Spin contamination <S**2-Sz**2-Sz>     0.00216618

 Memory could be reduced to 28.85 Mwords without degradation in triples
 

 RESULTS
 =======

  Reference energy                   -267.265363090267
  UCCSD singles energy                 -0.002822293621
  UCCSD pair energy                    -0.840331284676
  UCCSD correlation energy             -0.843153578297
  Triples (T) contribution             -0.024978793805
  Total correlation energy             -0.868132372102
 
  RHF-UCCSD energy                   -268.108516668564
  RHF-UCCSD[T] energy                -268.134831669236
  RHF-UCCSD-T energy                 -268.133073615920
 !RHF-UCCSD(T) energy                -268.133495462368

 Program statistics:

 Available memory in ccsd:               999997692
 Min. memory needed in ccsd:               7337057
 Max. memory used in ccsd:                10523002
 Max. memory used in cckext:              10867977 (31 integral passes)
 Max. memory used in cckint:              12633073 ( 1 integral passes)



 **********************************************************************************************************************************
 DATASETS  * FILE   NREC   LENGTH (MB)   RECORD NAMES
              1      18        3.17       500      610      700      900      950      970     1000      129      960     1100   
                                          VAR    BASINP    GEOM    SYMINP    ZMAT    AOBASIS   BASIS     P2S    ABASIS      S 
                                         1400     1410     1200     1210     1080     1600     1650     1700   
                                           T        V       H0       H01     AOSYM     SMH    MOLCAS    OPER   

              2       3        0.77       700     1000     2100   
                                         GEOM     BASIS     RHF  

 PROGRAMS   *        TOTAL  UCCSD(T)       RHF       INT
 CPU TIMES  *       231.42    229.39      1.10      0.88
 REAL TIME  *       244.89 SEC
 DISK USED  *         1.29 GB      
 SF USED    *       553.73 MB      
 GA USED    *         0.00 MB       (max)       0.00 MB       (current)
 **********************************************************************************************************************************

        UCCSD(T)        RHF-SCF 
   -268.13349546   -267.26536309
 **********************************************************************************************************************************
 Variable memory released
