
 Primary working directories    : /tmp/320938.123.gen4.q
 Secondary working directories  : /tmp/320938.123.gen4.q
 Wavefunction directory         : /home/vulcan/mel64643/wfu/
 Main file repository           : /tmp/320938.123.gen4.q/

 ARCHNAME  : Linux/x86_64
 FC        : /opt/intel/compilers_and_libraries_2016.1.150/linux/bin/intel64/ifort
 FCVERSION : 16.0.1
 BLASLIB   : -mkl
 id        : ccgc

 Nodes     nprocs
 n037         3
 Number of processes for MPI-2 version of Molpro:   nprocs(total)=    4   nprocs(compute)=    3   nprocs(helper)=    1
 ga_uses_ma=false, calling ma_init with nominal heap.
 GA-space will be limited to   8.0 MW (determined by -G option)

 Using customized tuning parameters: mindgm=10; mindgv=16; mindgc=4; mindgr=1; noblas=0; mincuda=1000; minvec=7
 default implementation of scratch files=sf  

 ***,Frequencies for min3
 memory,1000,m
 gthresh,energy=1.0d-10,orbital=1.0d-10,oneint=1.0d-16,twoint=1.0d-16,optgrad=1.0d-6,compress=1.0d-13
 geomtyp=xyz
 
  geometry = {
  12
  arbitrary comment
     C    1.776964391707    0.711398808326   -0.047331391796
     C    0.491811976407   -0.059992870174   -0.196493901896
     C    0.450332819107   -1.535686371559    0.101422525407
     O   -0.560709196156    0.727013369647    0.254451252461
     O   -1.837863380598    0.092211025541   -0.120533574513
     H    2.585365778098    0.210835949029   -0.611439536817
     H    1.662708529605    1.742740901811   -0.426484440945
     H    2.094364263385    0.773876669787    1.017598029482
     H   -0.505290925991   -1.983286145012   -0.220095867583
     H    1.281467952082   -2.047413512080   -0.417326052240
     H    0.561442460907   -1.719599511806    1.194658806639
     H   -1.988937929151    0.550135629446   -0.966716303133
  }
 
 basis=cc-pvdz
 {rhf;maxit,200}
 {uccsd(t);maxit,200}

 Variables initialized (661), CPU time= 0.01 sec
 Commands  initialized (458), CPU time= 0.01 sec, 486 directives.
 Default parameters read. Elapsed time= 0.07 sec

 Checking input...
 Passed
1


                                         ***  PROGRAM SYSTEM MOLPRO  ***
                         Copyright, University College Cardiff Consultants Limited, 2008

                                    Version 2010.1 linked May 16 2016 07:17:05


 **********************************************************************************************************************************
 LABEL *   Frequencies for min3                                                          
 Linux-4.4.3/n037(x86_64) 64 bit mpp version                                             DATE: 07-Mar-20          TIME: 01:41:05  
 **********************************************************************************************************************************

 SHA1:             9e8077add272b0f3cad6f7df79ec5211205f459d
 **********************************************************************************************************************************

 THRESHOLDS:

 ZERO    =  1.00D-12  ONEINT  =  1.00D-16  TWOINT  =  1.00D-16  PREFAC  =  1.00D-14  LOCALI  =  1.00D-09  EORDER  =  1.00D-04
 ENERGY  =  1.00D-10  ETEST   =  0.00D+00  EDENS   =  0.00D+00  THRDEDEF=  1.00D-06  GRADIENT=  1.00D-02  STEP    =  1.00D-03
 ORBITAL =  1.00D-10  CIVEC   =  1.00D-05  COEFF   =  1.00D-04  PRINTCI =  5.00D-02  PUNCHCI =  9.90D+01  OPTGRAD =  1.00D-06
 OPTENERG=  1.00D-06  OPTSTEP =  3.00D-04  THRGRAD =  1.00D-10  COMPRESS=  1.00D-13  VARMIN  =  1.00D-07  VARMAX  =  1.00D-03
 THRDOUB =  0.00D+00  THRDIV  =  1.00D-05  THRRED  =  1.00D-07  THRPSP  =  1.00D+00  THRDC   =  1.00D-10  THRCS   =  1.00D-10
 THRNRM  =  1.00D-08  THREQ   =  0.00D+00  THRDE   =  1.00D+00  THRREF  =  1.00D-05  SPARFAC =  1.00D+00  THRDLP  =  1.00D-07
 THRDIA  =  1.00D-10  THRDLS  =  1.00D-07  THRGPS  =  0.00D+00  THRKEX  =  0.00D+00  THRDIS  =  2.00D-01  THRVAR  =  1.00D-10
 THRLOC  =  1.00D-06  THRGAP  =  1.00D-06  THRLOCT = -1.00D+00  THRGAPT = -1.00D+00  THRORB  =  1.00D-06  THRMLTP =  0.00D+00
 THRCPQCI=  1.00D-10  KEXTA   =  0.00D+00  THRCOARS=  0.00D+00  SYMTOL  =  1.00D-06  GRADTOL =  1.00D-06  THROVL  =  1.00D-08
 THRORTH =  1.00D-08  GRID    =  1.00D-06  GRIDMAX =  1.00D-03  DTMAX   =  0.00D+00

 SETTING GEOMTYP        =    XYZ

 Variable memory set to 1000000000 words,  buffer space   230000 words

 SETTING BASIS          =    CC-PVDZ


 Recomputing integrals since basis changed


 Using spherical harmonics

 Library entry C      S cc-pVDZ              selected for orbital group  1
 Library entry C      P cc-pVDZ              selected for orbital group  1
 Library entry C      D cc-pVDZ              selected for orbital group  1
 Library entry O      S cc-pVDZ              selected for orbital group  2
 Library entry O      P cc-pVDZ              selected for orbital group  2
 Library entry O      D cc-pVDZ              selected for orbital group  2
 Library entry H      S cc-pVDZ              selected for orbital group  3
 Library entry H      P cc-pVDZ              selected for orbital group  3

1PROGRAM * SEWARD (Integral evaluation for generally contracted gaussian basis sets)     Author: Roland Lindh, 1990

 Geometry written to block  1 of record 700


 Point group  C1  



 ATOMIC COORDINATES

 NR  ATOM    CHARGE       X              Y              Z

   1  C       6.00    3.357976046    1.344348918   -0.089443368
   2  C       6.00    0.929389944   -0.113370094   -0.371319661
   3  C       6.00    0.851005696   -2.902026666    0.191660797
   4  O       8.00   -1.059586820    1.373856163    0.480843181
   5  O       8.00   -3.473058456    0.174253585   -0.227775445
   6  H       1.00    4.885633270    0.398422202   -1.155453271
   7  H       1.00    3.142063757    3.293303022   -0.805938793
   8  H       1.00    3.957774877    1.462414965    1.922981588
   9  H       1.00   -0.954861467   -3.747867654   -0.415920912
  10  H       1.00    2.421623476   -3.869050816   -0.788631946
  11  H       1.00    1.060972490   -3.249572133    2.257577965
  12  H       1.00   -3.758547978    1.039605675   -1.826829060

 Bond lengths in Bohr (Angstrom)

 1-2  2.846476668  1-6  2.089232170  1-7  2.087679552  1-8  2.103224294  2-3  2.845996585
     ( 1.506290578)     ( 1.105574049)     ( 1.104752439)     ( 1.112978362)     ( 1.506036529)

  2- 4  2.625652684   3- 9  2.084648345   3-10  2.088767526   3-11  2.105442389   4- 5  2.786760133
       ( 1.389435559)       ( 1.103148393)       ( 1.105328170)       ( 1.114152127)       ( 1.474689950)

  5-12  1.840464878
       ( 0.973932068)

 Bond angles

  1-2-3  120.37817739   1-2-4  108.91074243   2-1-6  109.96608659   2-1-7  110.84609565

  2- 1- 8  111.51916751   2- 3- 9  111.33235341   2- 3-10  109.88228878   2- 3-11  110.67697879

  2- 4- 5  109.25026927   3- 2- 4  118.03070442   4- 5-12   98.79329852   6- 1- 7  108.85561565

  6- 1- 8  107.76435211   7- 1- 8  107.78666725   9- 3-10  109.07146479   9- 3-11  107.78201312

 10- 3-11  108.00482899

 NUCLEAR CHARGE:                   41
 NUMBER OF PRIMITIVE AOS:         184
 NUMBER OF SYMMETRY AOS:          179
 NUMBER OF CONTRACTIONS:          105   ( 105A   )
 NUMBER OF CORE ORBITALS:           5   (   5A   )
 NUMBER OF VALENCE ORBITALS:       27   (  27A   )


 NUCLEAR REPULSION ENERGY  183.23358340


 Eigenvalues of metric

         1 0.345E-02 0.435E-02 0.105E-01 0.141E-01 0.182E-01 0.214E-01 0.331E-01 0.345E-01


 Contracted 2-electron integrals neglected if value below      1.0D-16
 AO integral compression algorithm  1   Integral accuracy      1.0D-16

     127.402 MB (compressed) written to integral file ( 93.4%)

     Node minimum: 31.982 MB, node maximum: 49.807 MB


 NUMBER OF SORTED TWO-ELECTRON INTEGRALS:    5164320.     BUFFER LENGTH:  32768
 NUMBER OF SEGMENTS:   1  SEGMENT LENGTH:    5164320      RECORD LENGTH: 524288

 Memory used in sort:       5.72 MW

 SORT1 READ    17075251. AND WROTE     5135880. INTEGRALS IN     15 RECORDS. CPU TIME:     0.31 SEC, REAL TIME:     0.37 SEC
 SORT2 READ    15396526. AND WROTE    15487395. INTEGRALS IN    570 RECORDS. CPU TIME:     0.12 SEC, REAL TIME:     0.16 SEC

 Node minimum:     5160610.  Node maximum:     5164320. integrals

 OPERATOR DM      FOR CENTER  0  COORDINATES:    0.000000    0.000000    0.000000


 **********************************************************************************************************************************
 DATASETS  * FILE   NREC   LENGTH (MB)   RECORD NAMES
              1      18        3.17       500      610      700      900      950      970     1000      129      960     1100   
                                          VAR    BASINP    GEOM    SYMINP    ZMAT    AOBASIS   BASIS     P2S    ABASIS      S 
                                         1400     1410     1200     1210     1080     1600     1650     1700   
                                           T        V       H0       H01     AOSYM     SMH    MOLCAS    OPER   

 PROGRAMS   *        TOTAL       INT
 CPU TIMES  *         1.53      1.42
 REAL TIME  *         1.81 SEC
 DISK USED  *       314.35 MB      
 GA USED    *         0.00 MB       (max)       0.00 MB       (current)
 **********************************************************************************************************************************

1PROGRAM * RHF-SCF (OPEN SHELL)       Authors: W. Meyer, H.-J. Werner


 NUMBER OF ELECTRONS:      21+   20-    SPACE SYMMETRY=1    SPIN SYMMETRY: Doublet 
 CONVERGENCE THRESHOLDS:    1.00E-10 (Density)    1.00E-11 (Energy)
 MAX. NUMBER OF ITERATIONS:      200
 INTERPOLATION TYPE:            DIIS
 INTERPOLATION STEPS:              2 (START)      1 (STEP)
 LEVEL SHIFTS:                 -0.30 (CLOSED)  0.00 (OPEN) 



 Orbital guess generated from atomic densities. Full valence occupancy:   32

 Molecular orbital dump at record        2100.2

 ITERATION    DDIFF          GRAD             ENERGY        2-EL.EN.            DIPOLE MOMENTS         DIIS
    1      0.000D+00      0.000D+00      -267.17827526    555.842803    0.57063    0.04790   -0.74945    0
    2      0.000D+00      0.617D-02      -267.24894466    555.760258    0.41409   -0.13144   -0.59865    1
    3      0.927D-02      0.214D-02      -267.26112551    555.678968    0.39373   -0.05933   -0.62596    2
    4      0.336D-02      0.912D-03      -267.26473677    555.831052    0.37903   -0.09931   -0.64235    3
    5      0.186D-02      0.364D-03      -267.26530670    555.802325    0.38151   -0.09276   -0.63532    4
    6      0.793D-03      0.110D-03      -267.26538332    555.788621    0.37975   -0.09255   -0.63806    5
    7      0.277D-03      0.511D-04      -267.26540348    555.785607    0.37902   -0.09228   -0.63756    6
    8      0.144D-03      0.272D-04      -267.26540954    555.783665    0.37928   -0.09240   -0.63777    7
    9      0.924D-04      0.115D-04      -267.26541046    555.783981    0.37946   -0.09235   -0.63753    8
   10      0.366D-04      0.501D-05      -267.26541061    555.784591    0.37972   -0.09237   -0.63760    9
   11      0.147D-04      0.197D-05      -267.26541064    555.784432    0.37977   -0.09236   -0.63760    9
   12      0.652D-05      0.671D-06      -267.26541064    555.784567    0.37979   -0.09236   -0.63760    9
   13      0.227D-05      0.226D-06      -267.26541064    555.784482    0.37979   -0.09236   -0.63760    9
   14      0.632D-06      0.759D-07      -267.26541064    555.784491    0.37979   -0.09237   -0.63760    9
   15      0.193D-06      0.301D-07      -267.26541064    555.784487    0.37980   -0.09237   -0.63760    9
   16      0.827D-07      0.145D-07      -267.26541064    555.784489    0.37980   -0.09237   -0.63760    9
   17      0.375D-07      0.751D-08      -267.26541064    555.784489    0.37980   -0.09237   -0.63760    9
   18      0.222D-07      0.342D-08      -267.26541064    555.784489    0.37980   -0.09237   -0.63760    9
   19      0.114D-07      0.133D-08      -267.26541064    555.784489    0.37980   -0.09237   -0.63760    9
   20      0.445D-08      0.568D-09      -267.26541064    555.784489    0.37980   -0.09237   -0.63760    9
   21      0.166D-08      0.287D-09      -267.26541064    555.784489    0.37980   -0.09237   -0.63760    9
   22      0.755D-09      0.162D-09      -267.26541064    555.784489    0.37980   -0.09237   -0.63760    9
   23      0.446D-09      0.797D-10      -267.26541064    555.784489    0.37980   -0.09237   -0.63760    9
   24      0.264D-09      0.317D-10      -267.26541064    555.784489    0.37980   -0.09237   -0.63760    9
   25      0.935D-10      0.129D-10      -267.26541064    555.784489    0.37980   -0.09237   -0.63760    0

 Final alpha occupancy:  21
 Final beta  occupancy:  20

 !RHF STATE 1.1 Energy               -267.265410644826
 Nuclear energy                       183.23358340
 One-electron energy                 -728.39123839
 Two-electron energy                  277.89224435
 Virial quotient                       -1.00155150
 !RHF STATE 1.1 Dipole moment           0.37979685    -0.09236572    -0.63759573
 Dipole moment /Debye                   0.96528408    -0.23475486    -1.62050055

 Orbital energies:

         1.1          2.1          3.1          4.1          5.1          6.1          7.1          8.1          9.1         10.1
    -20.630481   -20.628745   -11.279250   -11.237852   -11.232233    -1.470195    -1.240862    -1.023280    -0.945346    -0.768551

        11.1         12.1         13.1         14.1         15.1         16.1         17.1         18.1         19.1         20.1
     -0.704648    -0.643093    -0.626782    -0.588795    -0.545001    -0.543305    -0.539033    -0.516977    -0.492997    -0.469814

        21.1         22.1         23.1
     -0.352273     0.181318     0.183521


 **********************************************************************************************************************************
 DATASETS  * FILE   NREC   LENGTH (MB)   RECORD NAMES
              1      18        3.17       500      610      700      900      950      970     1000      129      960     1100   
                                          VAR    BASINP    GEOM    SYMINP    ZMAT    AOBASIS   BASIS     P2S    ABASIS      S 
                                         1400     1410     1200     1210     1080     1600     1650     1700   
                                           T        V       H0       H01     AOSYM     SMH    MOLCAS    OPER   

              2       3        0.77       700     1000     2100   
                                         GEOM     BASIS     RHF  

 PROGRAMS   *        TOTAL       RHF       INT
 CPU TIMES  *         3.44      1.91      1.42
 REAL TIME  *         3.88 SEC
 DISK USED  *       330.92 MB      
 SF USED    *         0.04 MB      
 GA USED    *         0.00 MB       (max)       0.00 MB       (current)
 **********************************************************************************************************************************


1PROGRAM * CCSD (Unrestricted open-shell coupled cluster)     Authors: C. Hampel, H.-J. Werner, 1991, M. Deegan, P.J. Knowles, 1992


 Convergence thresholds:  THRVAR = 1.00D-08  THRDEN = 1.00D-10

 CCSD(T)     terms to be evaluated (factor= 1.000)


 Number of core orbitals:           5 (   5 )
 Number of closed-shell orbitals:  15 (  15 )
 Number of active  orbitals:        1 (   1 )
 Number of external orbitals:      84 (  84 )

 Memory could be reduced to 24.91 Mwords without degradation in triples

 Number of N-1 electron functions:              31
 Number of N-2 electron functions:             465
 Number of singly external CSFs:              2635
 Number of doubly external CSFs:           2537250
 Total number of CSFs:                     2539885

 Molecular orbitals read from record     2100.2  Type=RHF/CANONICAL (state 1.1)

 Integral transformation finished. Total CPU:   1.42 sec, npass=  1  Memory used:  12.63 MW

 Starting RMP2 calculation

 ITER.      SQ.NORM     CORR.ENERGY   TOTAL ENERGY   ENERGY CHANGE        DEN1      VAR(S)    VAR(P)  DIIS     TIME
   1      1.24301173    -0.78635525  -268.05176590    -0.78635525    -0.00304942  0.20D-04  0.11D-02  1  1     1.85
   2      1.24565280    -0.78964384  -268.05505449    -0.00328859    -0.00000475  0.54D-06  0.19D-05  2  2     2.22
   3      1.24571836    -0.78968591  -268.05509656    -0.00004207    -0.00000003  0.16D-07  0.68D-08  3  3     2.61
   4      1.24571931    -0.78968591  -268.05509656    -0.00000000    -0.00000000  0.27D-09  0.38D-10  4  4     3.04
   5      1.24571939    -0.78968595  -268.05509659    -0.00000003    -0.00000000  0.25D-11  0.65D-12  5  5     3.49
   6      1.24571941    -0.78968595  -268.05509660    -0.00000001    -0.00000000  0.28D-13  0.87D-14  6  6     3.97
   7      1.24571941    -0.78968595  -268.05509660     0.00000000    -0.00000000  0.47D-15  0.12D-15  6  1     4.46
   8      1.24571941    -0.78968595  -268.05509660     0.00000000    -0.00000000  0.60D-17  0.13D-17  6  2     4.95

 Norm of t1 vector:      0.03893709      S-energy:    -0.00227216      T1 diagnostic:  0.00055037
 Norm of t2 vector:      0.49416931      P-energy:    -0.78741379
                                         Alpha-Beta:  -0.59339727
                                         Alpha-Alpha: -0.10093915
                                         Beta-Beta:   -0.09307737

 Spin contamination <S**2-Sz**2-Sz>     0.00104049
  Reference energy                   -267.265410644827
  RHF-RMP2 correlation energy          -0.789685953326
 !RHF-RMP2 energy                    -268.055096598152

 Starting UCCSD calculation

 ITER.      SQ.NORM     CORR.ENERGY   TOTAL ENERGY   ENERGY CHANGE        DEN1      VAR(S)    VAR(P)  DIIS     TIME
   1      1.26278958    -0.80903269  -268.07444333    -0.80903269    -0.02515360  0.38D-02  0.59D-02  1  1    13.11
   2      1.29156283    -0.83644008  -268.10185073    -0.02740739    -0.00201079  0.22D-03  0.66D-03  2  2    21.25
   3      1.30150419    -0.84093786  -268.10634851    -0.00449778    -0.00032465  0.19D-03  0.56D-04  3  3    29.41
   4      1.30641814    -0.84241497  -268.10782562    -0.00147711    -0.00007212  0.43D-04  0.14D-04  4  4    37.62
   5      1.30914982    -0.84280332  -268.10821396    -0.00038834    -0.00002368  0.19D-04  0.32D-05  5  5    45.85
   6      1.31109035    -0.84300790  -268.10841854    -0.00020458    -0.00000646  0.42D-05  0.12D-05  6  6    54.71
   7      1.31204025    -0.84306672  -268.10847736    -0.00005882    -0.00000208  0.14D-05  0.37D-06  6  2    61.50
   8      1.31248209    -0.84310941  -268.10852005    -0.00004269    -0.00000065  0.45D-06  0.11D-06  6  1    68.32
   9      1.31266756    -0.84311400  -268.10852464    -0.00000459    -0.00000022  0.15D-06  0.35D-07  6  4    75.14
  10      1.31273081    -0.84311693  -268.10852757    -0.00000293    -0.00000005  0.35D-07  0.95D-08  6  3    81.97
  11      1.31276034    -0.84311567  -268.10852632     0.00000126    -0.00000002  0.13D-07  0.28D-08  6  5    88.78
  12      1.31277074    -0.84311541  -268.10852606     0.00000026    -0.00000000  0.26D-08  0.95D-09  6  6    95.58
  13      1.31276960    -0.84311450  -268.10852514     0.00000092    -0.00000000  0.96D-09  0.29D-09  6  2   102.38
  14      1.31276439    -0.84311365  -268.10852430     0.00000084    -0.00000000  0.21D-09  0.68D-10  6  1   109.19
  15      1.31276031    -0.84311306  -268.10852371     0.00000059    -0.00000000  0.78D-10  0.19D-10  6  4   116.02
  16      1.31275713    -0.84311268  -268.10852333     0.00000038    -0.00000000  0.28D-10  0.63D-11  6  3   122.86
  17      1.31275492    -0.84311244  -268.10852309     0.00000024    -0.00000000  0.10D-10  0.24D-11  6  5   129.67
  18      1.31275402    -0.84311238  -268.10852303     0.00000006    -0.00000000  0.41D-11  0.87D-12  6  6   136.51
  19      1.31275341    -0.84311235  -268.10852299     0.00000003    -0.00000000  0.16D-11  0.37D-12  6  2   143.32
  20      1.31275309    -0.84311234  -268.10852298     0.00000001    -0.00000000  0.60D-12  0.13D-12  6  1   150.16
  21      1.31275292    -0.84311233  -268.10852297     0.00000001    -0.00000000  0.28D-12  0.58D-13  6  4   156.98
  22      1.31275280    -0.84311232  -268.10852296     0.00000001    -0.00000000  0.74D-13  0.21D-13  6  3   163.79
  23      1.31275274    -0.84311231  -268.10852296     0.00000000    -0.00000000  0.21D-13  0.63D-14  6  5   170.63
  24      1.31275274    -0.84311231  -268.10852296    -0.00000000    -0.00000000  0.68D-14  0.23D-14  6  6   177.45
  25      1.31275274    -0.84311232  -268.10852296    -0.00000000    -0.00000000  0.21D-14  0.53D-15  6  2   184.30
  26      1.31275275    -0.84311232  -268.10852296    -0.00000000    -0.00000000  0.77D-15  0.15D-15  6  1   191.18
  27      1.31275276    -0.84311232  -268.10852296    -0.00000000    -0.00000000  0.20D-15  0.63D-16  6  3   197.98
  28      1.31275276    -0.84311232  -268.10852296    -0.00000000    -0.00000000  0.30D-16  0.11D-16  6  4   204.87
  29      1.31275276    -0.84311232  -268.10852296    -0.00000000    -0.00000000  0.71D-17  0.29D-17  6  5   211.72
  30      1.31275276    -0.84311232  -268.10852296    -0.00000000    -0.00000000  0.15D-17  0.54D-18  6  6   218.56
  31      1.31275277    -0.84311232  -268.10852296    -0.00000000    -0.00000000  0.35D-18  0.10D-18  6  2   225.43

 Norm of t1 vector:      0.13872941      S-energy:    -0.00282201      T1 diagnostic:  0.01617030
                                                                       D1 diagnostic:  0.06282515
 Norm of t2 vector:      0.54176279      P-energy:    -0.84029031
                                         Alpha-Beta:  -0.66484558
                                         Alpha-Alpha: -0.09147393
                                         Beta-Beta:   -0.08397080

 Spin contamination <S**2-Sz**2-Sz>     0.00217341

 Memory could be reduced to 28.85 Mwords without degradation in triples
 

 RESULTS
 =======

  Reference energy                   -267.265410644827
  UCCSD singles energy                 -0.002822005623
  UCCSD pair energy                    -0.840290312570
  UCCSD correlation energy             -0.843112318193
  Triples (T) contribution             -0.024973243388
  Total correlation energy             -0.868085561581
 
  RHF-UCCSD energy                   -268.108522963020
  RHF-UCCSD[T] energy                -268.134831754110
  RHF-UCCSD-T energy                 -268.133074937462
 !RHF-UCCSD(T) energy                -268.133496206408

 Program statistics:

 Available memory in ccsd:               999997692
 Min. memory needed in ccsd:               7337057
 Max. memory used in ccsd:                10523002
 Max. memory used in cckext:              10867977 (31 integral passes)
 Max. memory used in cckint:              12633073 ( 1 integral passes)



 **********************************************************************************************************************************
 DATASETS  * FILE   NREC   LENGTH (MB)   RECORD NAMES
              1      18        3.17       500      610      700      900      950      970     1000      129      960     1100   
                                          VAR    BASINP    GEOM    SYMINP    ZMAT    AOBASIS   BASIS     P2S    ABASIS      S 
                                         1400     1410     1200     1210     1080     1600     1650     1700   
                                           T        V       H0       H01     AOSYM     SMH    MOLCAS    OPER   

              2       3        0.77       700     1000     2100   
                                         GEOM     BASIS     RHF  

 PROGRAMS   *        TOTAL  UCCSD(T)       RHF       INT
 CPU TIMES  *       289.96    286.52      1.91      1.42
 REAL TIME  *       302.52 SEC
 DISK USED  *         1.30 GB      
 SF USED    *       553.73 MB      
 GA USED    *         0.00 MB       (max)       0.00 MB       (current)
 **********************************************************************************************************************************

        UCCSD(T)        RHF-SCF 
   -268.13349621   -267.26541064
 **********************************************************************************************************************************
 Variable memory released
