
 Primary working directories    : /tmp/320938.897.gen6.q
 Secondary working directories  : /tmp/320938.897.gen6.q
 Wavefunction directory         : /home/vulcan/mel64643/wfu/
 Main file repository           : /tmp/320938.897.gen6.q/

 ARCHNAME  : Linux/x86_64
 FC        : /opt/intel/compilers_and_libraries_2016.1.150/linux/bin/intel64/ifort
 FCVERSION : 16.0.1
 BLASLIB   : -mkl
 id        : ccgc

 Nodes     nprocs
 n090         3
 Number of processes for MPI-2 version of Molpro:   nprocs(total)=    4   nprocs(compute)=    3   nprocs(helper)=    1
 ga_uses_ma=false, calling ma_init with nominal heap.
 GA-space will be limited to   8.0 MW (determined by -G option)

 Using customized tuning parameters: mindgm=10; mindgv=16; mindgc=4; mindgr=1; noblas=0; mincuda=1000; minvec=7
 default implementation of scratch files=sf  

 ***,Frequencies for min3
 memory,1000,m
 gthresh,energy=1.0d-10,orbital=1.0d-10,oneint=1.0d-16,twoint=1.0d-16,optgrad=1.0d-6,compress=1.0d-13
 geomtyp=xyz
 
  geometry = {
  12
  arbitrary comment
     C    1.776278548007    0.711327343990   -0.047325832693
     C    0.491946274645   -0.060012827333   -0.196492114088
     C    0.449830351994   -1.536171988146    0.101399776545
     O   -0.560490491308    0.727251382157    0.254462217749
     O   -1.837497996690    0.092158556851   -0.120530273914
     H    2.585702982385    0.211815316733   -0.611439603038
     H    1.660599082017    1.743140291222   -0.426513410937
     H    2.095396205952    0.774328693875    1.017658233444
     H   -0.504315945422   -1.982748627393   -0.220106429806
     H    1.282455822600   -2.046991420635   -0.417182012530
     H    0.562313237972   -1.719048001816    1.194724197659
     H   -1.987751221829    0.550719707713   -0.966989360952
  }
 
 basis=cc-pvdz
 {rhf;maxit,200}
 {uccsd(t);maxit,200}

 Variables initialized (661), CPU time= 0.00 sec
 Commands  initialized (458), CPU time= 0.01 sec, 486 directives.
 Default parameters read. Elapsed time= 0.06 sec

 Checking input...
 Passed
1


                                         ***  PROGRAM SYSTEM MOLPRO  ***
                         Copyright, University College Cardiff Consultants Limited, 2008

                                    Version 2010.1 linked May 16 2016 07:17:05


 **********************************************************************************************************************************
 LABEL *   Frequencies for min3                                                          
 Linux-4.4.3/n090(x86_64) 64 bit mpp version                                             DATE: 07-Mar-20          TIME: 06:15:05  
 **********************************************************************************************************************************

 SHA1:             9e8077add272b0f3cad6f7df79ec5211205f459d
 **********************************************************************************************************************************

 THRESHOLDS:

 ZERO    =  1.00D-12  ONEINT  =  1.00D-16  TWOINT  =  1.00D-16  PREFAC  =  1.00D-14  LOCALI  =  1.00D-09  EORDER  =  1.00D-04
 ENERGY  =  1.00D-10  ETEST   =  0.00D+00  EDENS   =  0.00D+00  THRDEDEF=  1.00D-06  GRADIENT=  1.00D-02  STEP    =  1.00D-03
 ORBITAL =  1.00D-10  CIVEC   =  1.00D-05  COEFF   =  1.00D-04  PRINTCI =  5.00D-02  PUNCHCI =  9.90D+01  OPTGRAD =  1.00D-06
 OPTENERG=  1.00D-06  OPTSTEP =  3.00D-04  THRGRAD =  1.00D-10  COMPRESS=  1.00D-13  VARMIN  =  1.00D-07  VARMAX  =  1.00D-03
 THRDOUB =  0.00D+00  THRDIV  =  1.00D-05  THRRED  =  1.00D-07  THRPSP  =  1.00D+00  THRDC   =  1.00D-10  THRCS   =  1.00D-10
 THRNRM  =  1.00D-08  THREQ   =  0.00D+00  THRDE   =  1.00D+00  THRREF  =  1.00D-05  SPARFAC =  1.00D+00  THRDLP  =  1.00D-07
 THRDIA  =  1.00D-10  THRDLS  =  1.00D-07  THRGPS  =  0.00D+00  THRKEX  =  0.00D+00  THRDIS  =  2.00D-01  THRVAR  =  1.00D-10
 THRLOC  =  1.00D-06  THRGAP  =  1.00D-06  THRLOCT = -1.00D+00  THRGAPT = -1.00D+00  THRORB  =  1.00D-06  THRMLTP =  0.00D+00
 THRCPQCI=  1.00D-10  KEXTA   =  0.00D+00  THRCOARS=  0.00D+00  SYMTOL  =  1.00D-06  GRADTOL =  1.00D-06  THROVL  =  1.00D-08
 THRORTH =  1.00D-08  GRID    =  1.00D-06  GRIDMAX =  1.00D-03  DTMAX   =  0.00D+00

 SETTING GEOMTYP        =    XYZ

 Variable memory set to 1000000000 words,  buffer space   230000 words

 SETTING BASIS          =    CC-PVDZ


 Recomputing integrals since basis changed


 Using spherical harmonics

 Library entry C      S cc-pVDZ              selected for orbital group  1
 Library entry C      P cc-pVDZ              selected for orbital group  1
 Library entry C      D cc-pVDZ              selected for orbital group  1
 Library entry O      S cc-pVDZ              selected for orbital group  2
 Library entry O      P cc-pVDZ              selected for orbital group  2
 Library entry O      D cc-pVDZ              selected for orbital group  2
 Library entry H      S cc-pVDZ              selected for orbital group  3
 Library entry H      P cc-pVDZ              selected for orbital group  3

1PROGRAM * SEWARD (Integral evaluation for generally contracted gaussian basis sets)     Author: Roland Lindh, 1990

 Geometry written to block  1 of record 700


 Point group  C1  



 ATOMIC COORDINATES

 NR  ATOM    CHARGE       X              Y              Z

   1  C       6.00    3.356679989    1.344213870   -0.089432863
   2  C       6.00    0.929643730   -0.113407808   -0.371316283
   3  C       6.00    0.850056171   -2.902944348    0.191617807
   4  O       8.00   -1.059173528    1.374305941    0.480863902
   5  O       8.00   -3.472367981    0.174154433   -0.227769208
   6  H       1.00    4.886270494    0.400272939   -1.155453396
   7  H       1.00    3.138077479    3.294057759   -0.805993538
   8  H       1.00    3.959724966    1.463269167    1.923095357
   9  H       1.00   -0.953019021   -3.746851893   -0.415940872
  10  H       1.00    2.423490280   -3.868253178   -0.788359751
  11  H       1.00    1.062618020   -3.248529930    2.257701536
  12  H       1.00   -3.756305427    1.040709423   -1.827345064

 Bond lengths in Bohr (Angstrom)

 1-2  2.845105309  1-6  2.089753902  1-7  2.088812450  1-8  2.104306832  2-3  2.846883046
     ( 1.505564887)     ( 1.105850137)     ( 1.105351942)     ( 1.113551216)     ( 1.506505625)

  2- 4  2.625813656   3- 9  2.081438839   3-10  2.089945465   3-11  2.105543613   4- 5  2.786760125
       ( 1.389520742)       ( 1.101449995)       ( 1.105951508)       ( 1.114205693)       ( 1.474689945)

  5-12  1.841244400
       ( 0.974344573)

 Bond angles

  1-2-3  120.41522657   1-2-4  108.88619662   2-1-6  110.02527759   2-1-7  110.79205718

  2- 1- 8  111.60510145   2- 3- 9  111.33229603   2- 3-10  109.80452954   2- 3-11  110.61177697

  2- 4- 5  109.22945182   3- 2- 4  118.02209539   4- 5-12   98.72910086   6- 1- 7  108.85988404

  6- 1- 8  107.67791848   7- 1- 8  107.77401826   9- 3-10  109.14971524   9- 3-11  107.89836404

 10- 3-11  107.95683096

 NUCLEAR CHARGE:                   41
 NUMBER OF PRIMITIVE AOS:         184
 NUMBER OF SYMMETRY AOS:          179
 NUMBER OF CONTRACTIONS:          105   ( 105A   )
 NUMBER OF CORE ORBITALS:           5   (   5A   )
 NUMBER OF VALENCE ORBITALS:       27   (  27A   )


 NUCLEAR REPULSION ENERGY  183.24151777


 Eigenvalues of metric

         1 0.345E-02 0.434E-02 0.105E-01 0.141E-01 0.182E-01 0.214E-01 0.331E-01 0.346E-01


 Contracted 2-electron integrals neglected if value below      1.0D-16
 AO integral compression algorithm  1   Integral accuracy      1.0D-16

     127.664 MB (compressed) written to integral file ( 93.2%)

     Node minimum: 40.632 MB, node maximum: 43.516 MB


 NUMBER OF SORTED TWO-ELECTRON INTEGRALS:    5164320.     BUFFER LENGTH:  32768
 NUMBER OF SEGMENTS:   1  SEGMENT LENGTH:    5164320      RECORD LENGTH: 524288

 Memory used in sort:       5.72 MW

 SORT1 READ    17075251. AND WROTE     5135926. INTEGRALS IN     15 RECORDS. CPU TIME:     0.19 SEC, REAL TIME:     0.23 SEC
 SORT2 READ    15396699. AND WROTE    15487395. INTEGRALS IN    465 RECORDS. CPU TIME:     0.05 SEC, REAL TIME:     0.09 SEC

 Node minimum:     5160610.  Node maximum:     5164320. integrals

 OPERATOR DM      FOR CENTER  0  COORDINATES:    0.000000    0.000000    0.000000


 **********************************************************************************************************************************
 DATASETS  * FILE   NREC   LENGTH (MB)   RECORD NAMES
              1      18        3.17       500      610      700      900      950      970     1000      129      960     1100   
                                          VAR    BASINP    GEOM    SYMINP    ZMAT    AOBASIS   BASIS     P2S    ABASIS      S 
                                         1400     1410     1200     1210     1080     1600     1650     1700   
                                           T        V       H0       H01     AOSYM     SMH    MOLCAS    OPER   

 PROGRAMS   *        TOTAL       INT
 CPU TIMES  *         0.80      0.74
 REAL TIME  *         1.25 SEC
 DISK USED  *       306.06 MB      
 GA USED    *         0.00 MB       (max)       0.00 MB       (current)
 **********************************************************************************************************************************

1PROGRAM * RHF-SCF (OPEN SHELL)       Authors: W. Meyer, H.-J. Werner


 NUMBER OF ELECTRONS:      21+   20-    SPACE SYMMETRY=1    SPIN SYMMETRY: Doublet 
 CONVERGENCE THRESHOLDS:    1.00E-10 (Density)    1.00E-11 (Energy)
 MAX. NUMBER OF ITERATIONS:      200
 INTERPOLATION TYPE:            DIIS
 INTERPOLATION STEPS:              2 (START)      1 (STEP)
 LEVEL SHIFTS:                 -0.30 (CLOSED)  0.00 (OPEN) 



 Orbital guess generated from atomic densities. Full valence occupancy:   32

 Molecular orbital dump at record        2100.2

 ITERATION    DDIFF          GRAD             ENERGY        2-EL.EN.            DIPOLE MOMENTS         DIIS
    1      0.000D+00      0.000D+00      -267.17824507    555.859930    0.57252    0.04981   -0.74949    0
    2      0.000D+00      0.617D-02      -267.24891732    555.776637    0.41464   -0.13089   -0.59885    1
    3      0.927D-02      0.214D-02      -267.26109375    555.695164    0.39399   -0.05906   -0.62610    2
    4      0.336D-02      0.912D-03      -267.26470176    555.847195    0.37912   -0.09926   -0.64248    3
    5      0.186D-02      0.364D-03      -267.26527105    555.818442    0.38155   -0.09279   -0.63543    4
    6      0.793D-03      0.110D-03      -267.26534748    555.804718    0.37979   -0.09259   -0.63816    5
    7      0.277D-03      0.511D-04      -267.26536759    555.801714    0.37907   -0.09233   -0.63765    6
    8      0.144D-03      0.272D-04      -267.26537364    555.799767    0.37934   -0.09245   -0.63786    7
    9      0.923D-04      0.115D-04      -267.26537456    555.800087    0.37953   -0.09240   -0.63762    8
   10      0.366D-04      0.501D-05      -267.26537471    555.800696    0.37979   -0.09242   -0.63768    9
   11      0.146D-04      0.196D-05      -267.26537474    555.800537    0.37984   -0.09241   -0.63769    9
   12      0.650D-05      0.670D-06      -267.26537474    555.800672    0.37986   -0.09241   -0.63769    9
   13      0.227D-05      0.226D-06      -267.26537474    555.800587    0.37986   -0.09241   -0.63768    9
   14      0.631D-06      0.757D-07      -267.26537474    555.800596    0.37986   -0.09241   -0.63768    9
   15      0.193D-06      0.300D-07      -267.26537474    555.800592    0.37986   -0.09241   -0.63768    9
   16      0.826D-07      0.145D-07      -267.26537474    555.800594    0.37987   -0.09241   -0.63768    9
   17      0.375D-07      0.752D-08      -267.26537474    555.800594    0.37987   -0.09241   -0.63768    9
   18      0.223D-07      0.342D-08      -267.26537474    555.800594    0.37987   -0.09241   -0.63768    9
   19      0.114D-07      0.133D-08      -267.26537474    555.800594    0.37987   -0.09241   -0.63768    9
   20      0.444D-08      0.567D-09      -267.26537474    555.800594    0.37987   -0.09241   -0.63768    9
   21      0.166D-08      0.286D-09      -267.26537474    555.800594    0.37987   -0.09241   -0.63768    9
   22      0.754D-09      0.162D-09      -267.26537474    555.800594    0.37987   -0.09241   -0.63768    9
   23      0.446D-09      0.795D-10      -267.26537474    555.800594    0.37987   -0.09241   -0.63768    9
   24      0.264D-09      0.316D-10      -267.26537474    555.800594    0.37987   -0.09241   -0.63768    9
   25      0.931D-10      0.129D-10      -267.26537474    555.800594    0.37987   -0.09241   -0.63768    0

 Final alpha occupancy:  21
 Final beta  occupancy:  20

 !RHF STATE 1.1 Energy               -267.265374744431
 Nuclear energy                       183.24151777
 One-electron energy                 -728.40718937
 Two-electron energy                  277.90029685
 Virial quotient                       -1.00155365
 !RHF STATE 1.1 Dipole moment           0.37986568    -0.09241466    -0.63768366
 Dipole moment /Debye                   0.96545901    -0.23487925    -1.62072405

 Orbital energies:

         1.1          2.1          3.1          4.1          5.1          6.1          7.1          8.1          9.1         10.1
    -20.630465   -20.628801   -11.279234   -11.237936   -11.232199    -1.470195    -1.240774    -1.023277    -0.945370    -0.768472

        11.1         12.1         13.1         14.1         15.1         16.1         17.1         18.1         19.1         20.1
     -0.704600    -0.643165    -0.626765    -0.588788    -0.545180    -0.543238    -0.538783    -0.516973    -0.493016    -0.469932

        21.1         22.1         23.1
     -0.352269     0.181278     0.183523


 **********************************************************************************************************************************
 DATASETS  * FILE   NREC   LENGTH (MB)   RECORD NAMES
              1      18        3.17       500      610      700      900      950      970     1000      129      960     1100   
                                          VAR    BASINP    GEOM    SYMINP    ZMAT    AOBASIS   BASIS     P2S    ABASIS      S 
                                         1400     1410     1200     1210     1080     1600     1650     1700   
                                           T        V       H0       H01     AOSYM     SMH    MOLCAS    OPER   

              2       3        0.77       700     1000     2100   
                                         GEOM     BASIS     RHF  

 PROGRAMS   *        TOTAL       RHF       INT
 CPU TIMES  *         1.72      0.92      0.74
 REAL TIME  *         2.32 SEC
 DISK USED  *       322.62 MB      
 SF USED    *         0.04 MB      
 GA USED    *         0.00 MB       (max)       0.00 MB       (current)
 **********************************************************************************************************************************


1PROGRAM * CCSD (Unrestricted open-shell coupled cluster)     Authors: C. Hampel, H.-J. Werner, 1991, M. Deegan, P.J. Knowles, 1992


 Convergence thresholds:  THRVAR = 1.00D-08  THRDEN = 1.00D-10

 CCSD(T)     terms to be evaluated (factor= 1.000)


 Number of core orbitals:           5 (   5 )
 Number of closed-shell orbitals:  15 (  15 )
 Number of active  orbitals:        1 (   1 )
 Number of external orbitals:      84 (  84 )

 Memory could be reduced to 24.91 Mwords without degradation in triples

 Number of N-1 electron functions:              31
 Number of N-2 electron functions:             465
 Number of singly external CSFs:              2635
 Number of doubly external CSFs:           2537250
 Total number of CSFs:                     2539885

 Molecular orbitals read from record     2100.2  Type=RHF/CANONICAL (state 1.1)

 Integral transformation finished. Total CPU:   0.72 sec, npass=  1  Memory used:  12.63 MW

 Starting RMP2 calculation

 ITER.      SQ.NORM     CORR.ENERGY   TOTAL ENERGY   ENERGY CHANGE        DEN1      VAR(S)    VAR(P)  DIIS     TIME
   1      1.24303640    -0.78639309  -268.05176784    -0.78639309    -0.00304989  0.20D-04  0.11D-02  1  1     0.98
   2      1.24567804    -0.78968220  -268.05505695    -0.00328911    -0.00000475  0.54D-06  0.19D-05  2  2     1.22
   3      1.24574362    -0.78972428  -268.05509903    -0.00004208    -0.00000003  0.16D-07  0.68D-08  3  3     1.49
   4      1.24574457    -0.78972428  -268.05509903    -0.00000000    -0.00000000  0.27D-09  0.38D-10  4  4     1.77
   5      1.24574466    -0.78972432  -268.05509906    -0.00000003    -0.00000000  0.25D-11  0.65D-12  5  5     2.08
   6      1.24574467    -0.78972432  -268.05509907    -0.00000001    -0.00000000  0.28D-13  0.87D-14  6  6     2.40
   7      1.24574467    -0.78972432  -268.05509907     0.00000000    -0.00000000  0.47D-15  0.12D-15  6  1     2.74
   8      1.24574467    -0.78972432  -268.05509907     0.00000000    -0.00000000  0.60D-17  0.13D-17  6  2     3.06

 Norm of t1 vector:      0.03893676      S-energy:    -0.00227211      T1 diagnostic:  0.00055050
 Norm of t2 vector:      0.49419490      P-energy:    -0.78745221
                                         Alpha-Beta:  -0.59342569
                                         Alpha-Alpha: -0.10094385
                                         Beta-Beta:   -0.09308267

 Spin contamination <S**2-Sz**2-Sz>     0.00104028
  Reference energy                   -267.265374744433
  RHF-RMP2 correlation energy          -0.789724323503
 !RHF-RMP2 energy                    -268.055099067936

 Starting UCCSD calculation

 ITER.      SQ.NORM     CORR.ENERGY   TOTAL ENERGY   ENERGY CHANGE        DEN1      VAR(S)    VAR(P)  DIIS     TIME
   1      1.26280973    -0.80906038  -268.07443513    -0.80906038    -0.02515765  0.38D-02  0.59D-02  1  1     7.83
   2      1.29158783    -0.83647118  -268.10184592    -0.02741079    -0.00201153  0.22D-03  0.66D-03  2  2    12.58
   3      1.30153195    -0.84097042  -268.10634517    -0.00449925    -0.00032468  0.19D-03  0.56D-04  3  3    17.35
   4      1.30644646    -0.84244791  -268.10782265    -0.00147749    -0.00007209  0.43D-04  0.14D-04  4  4    22.15
   5      1.30917664    -0.84283610  -268.10821084    -0.00038819    -0.00002367  0.19D-04  0.32D-05  5  5    26.96
   6      1.31111548    -0.84304056  -268.10841530    -0.00020446    -0.00000645  0.42D-05  0.12D-05  6  6    31.81
   7      1.31206441    -0.84309932  -268.10847406    -0.00005876    -0.00000208  0.14D-05  0.37D-06  6  2    38.08
   8      1.31250573    -0.84314198  -268.10851672    -0.00004266    -0.00000065  0.45D-06  0.11D-06  6  1    44.40
   9      1.31269081    -0.84314656  -268.10852130    -0.00000458    -0.00000022  0.15D-06  0.35D-07  6  4    49.25
  10      1.31275392    -0.84314948  -268.10852423    -0.00000293    -0.00000005  0.35D-07  0.95D-08  6  3    54.48
  11      1.31278341    -0.84314823  -268.10852297     0.00000126    -0.00000002  0.13D-07  0.28D-08  6  5    60.78
  12      1.31279378    -0.84314797  -268.10852271     0.00000026    -0.00000000  0.26D-08  0.95D-09  6  6    67.09
  13      1.31279263    -0.84314705  -268.10852179     0.00000092    -0.00000000  0.96D-09  0.28D-09  6  2    73.45
  14      1.31278743    -0.84314621  -268.10852095     0.00000084    -0.00000000  0.21D-09  0.67D-10  6  1    79.77
  15      1.31278335    -0.84314562  -268.10852036     0.00000059    -0.00000000  0.78D-10  0.19D-10  6  4    86.09
  16      1.31278017    -0.84314524  -268.10851998     0.00000038    -0.00000000  0.28D-10  0.63D-11  6  3    92.34
  17      1.31277797    -0.84314500  -268.10851974     0.00000024    -0.00000000  0.10D-10  0.24D-11  6  5    98.70
  18      1.31277707    -0.84314494  -268.10851968     0.00000006    -0.00000000  0.41D-11  0.87D-12  6  6   105.03
  19      1.31277646    -0.84314490  -268.10851965     0.00000003    -0.00000000  0.16D-11  0.37D-12  6  2   111.56
  20      1.31277614    -0.84314489  -268.10851964     0.00000001    -0.00000000  0.60D-12  0.13D-12  6  1   117.73
  21      1.31277598    -0.84314488  -268.10851963     0.00000001    -0.00000000  0.28D-12  0.58D-13  6  4   124.17
  22      1.31277585    -0.84314487  -268.10851962     0.00000001    -0.00000000  0.74D-13  0.21D-13  6  3   130.55
  23      1.31277580    -0.84314487  -268.10851962     0.00000000    -0.00000000  0.21D-13  0.63D-14  6  5   136.95
  24      1.31277579    -0.84314487  -268.10851962    -0.00000000    -0.00000000  0.67D-14  0.22D-14  6  6   143.21
  25      1.31277579    -0.84314487  -268.10851962    -0.00000000    -0.00000000  0.21D-14  0.52D-15  6  2   149.51
  26      1.31277580    -0.84314487  -268.10851962    -0.00000000    -0.00000000  0.77D-15  0.15D-15  6  1   155.82
  27      1.31277581    -0.84314487  -268.10851962    -0.00000000    -0.00000000  0.20D-15  0.62D-16  6  3   162.14
  28      1.31277582    -0.84314487  -268.10851962    -0.00000000    -0.00000000  0.30D-16  0.11D-16  6  4   168.41
  29      1.31277582    -0.84314487  -268.10851962    -0.00000000    -0.00000000  0.70D-17  0.29D-17  6  5   174.19
  30      1.31277582    -0.84314487  -268.10851962    -0.00000000    -0.00000000  0.15D-17  0.54D-18  6  6   179.96
  31      1.31277582    -0.84314487  -268.10851962    -0.00000000    -0.00000000  0.35D-18  0.10D-18  6  2   185.74

 Norm of t1 vector:      0.13872196      S-energy:    -0.00282168      T1 diagnostic:  0.01616993
                                                                       D1 diagnostic:  0.06282977
 Norm of t2 vector:      0.54178597      P-energy:    -0.84032319
                                         Alpha-Beta:  -0.66487444
                                         Alpha-Alpha: -0.09147546
                                         Beta-Beta:   -0.08397329

 Spin contamination <S**2-Sz**2-Sz>     0.00217126

 Memory could be reduced to 28.85 Mwords without degradation in triples
 

 RESULTS
 =======

  Reference energy                   -267.265374744433
  UCCSD singles energy                 -0.002821681291
  UCCSD pair energy                    -0.840323193584
  UCCSD correlation energy             -0.843144874875
  Triples (T) contribution             -0.024976545665
  Total correlation energy             -0.868121420540
 
  RHF-UCCSD energy                   -268.108519619308
  RHF-UCCSD[T] energy                -268.134832037142
  RHF-UCCSD-T energy                 -268.133074713462
 !RHF-UCCSD(T) energy                -268.133496164973

 Program statistics:

 Available memory in ccsd:               999997692
 Min. memory needed in ccsd:               7337057
 Max. memory used in ccsd:                10523002
 Max. memory used in cckext:              10867977 (31 integral passes)
 Max. memory used in cckint:              12633073 ( 1 integral passes)



 **********************************************************************************************************************************
 DATASETS  * FILE   NREC   LENGTH (MB)   RECORD NAMES
              1      18        3.17       500      610      700      900      950      970     1000      129      960     1100   
                                          VAR    BASINP    GEOM    SYMINP    ZMAT    AOBASIS   BASIS     P2S    ABASIS      S 
                                         1400     1410     1200     1210     1080     1600     1650     1700   
                                           T        V       H0       H01     AOSYM     SMH    MOLCAS    OPER   

              2       3        0.77       700     1000     2100   
                                         GEOM     BASIS     RHF  

 PROGRAMS   *        TOTAL  UCCSD(T)       RHF       INT
 CPU TIMES  *       227.70    225.97      0.92      0.74
 REAL TIME  *       236.84 SEC
 DISK USED  *         1.29 GB      
 SF USED    *       553.73 MB      
 GA USED    *         0.00 MB       (max)       0.00 MB       (current)
 **********************************************************************************************************************************

        UCCSD(T)        RHF-SCF 
   -268.13349616   -267.26537474
 **********************************************************************************************************************************
 Variable memory released
