
    -----------------------------------------------------------------------
          Psi4: An Open-Source Ab Initio Electronic Structure Package
                               Psi4 1.4a2.dev478 

                         Git: Rev {master} f722895 dirty


    R. M. Parrish, L. A. Burns, D. G. A. Smith, A. C. Simmonett,
    A. E. DePrince III, E. G. Hohenstein, U. Bozkaya, A. Yu. Sokolov,
    R. Di Remigio, R. M. Richard, J. F. Gonthier, A. M. James,
    H. R. McAlexander, A. Kumar, M. Saitow, X. Wang, B. P. Pritchard,
    P. Verma, H. F. Schaefer III, K. Patkowski, R. A. King, E. F. Valeev,
    F. A. Evangelista, J. M. Turney, T. D. Crawford, and C. D. Sherrill,
    J. Chem. Theory Comput. 13(7) pp 3185--3197 (2017).
    (doi: 10.1021/acs.jctc.7b00174)


                         Additional Contributions by
    P. Kraus, H. Kruse, M. H. Lechner, M. C. Schieber, R. A. Shaw,
    A. Alenaizan, R. Galvelis, Z. L. Glick, S. Lehtola, and J. P. Misiewicz

    -----------------------------------------------------------------------


    Psi4 started on: Monday, 08 June 2020 02:56PM

    Process ID: 28715
    Host:       n087
    PSIDATADIR: /opt/psi/4/master/share/psi4
    Memory:     500.0 MiB
    Threads:    4
    
  ==> Input File <==

--------------------------------------------------------------------------
set memory 40Gb

molecule {
    C   -1.174143750690   -0.774963495581   -0.000122054786
    H   -1.619161817890   -1.211058947381   -0.891063737386
    H   -1.619236641990   -1.211251475481    0.890686519114
    C   -1.174932290585    0.774899917772    0.000039302647
    H   -1.619177205710    1.210967079305    0.890946487017
    H   -1.619132193220    1.211156156308   -0.890797840783
    C    0.353049756237    0.922269779828    0.000099395808
    H    0.839052397153    1.892335002987    0.000209358772
    O    0.767531608648    0.000115224486   -1.027348507260
    C    0.353036077103   -0.922233903735   -0.000074620015
    H    0.839029874680   -1.892302711198   -0.000156512105
    O    0.767459859956   -0.000084681772    1.027403075640
}

set {
    e_convergence 10
    d_convergence 10
    freeze_core True
    basis_guess True
    cc_type conv
    maxiter 300
}

E = energy('mp2/heavy-aug-cc-pV(Q+d)Z')
psi4.print_out("\n========================OPTAVC-XTPL==========================\n\n")
psi4.print_out("MP2/QZ correlation energy {}\n".format(variable("MP2 CORRELATION ENERGY")))
psi4.print_out("SCF/QZ reference energy {}\n".format(variable("CURRENT REFERENCE ENERGY")))
psi4.print_out("\n\n=============================================================\n")

E = energy('mp2/heavy-aug-cc-pV(T+d)Z')
psi4.print_out("\n========================OPTAVC-XTPL==========================\n\n")
psi4.print_out("MP2/TZ correlation energy {}".format(variable("MP2 CORRELATION ENERGY")))
psi4.print_out("\n\n=============================================================\n")
--------------------------------------------------------------------------

Scratch directory: /tmp/

Scratch directory: /tmp/
    SCF Algorithm Type (re)set to DF.

*** tstart() called on n087
*** at Mon Jun  8 14:56:50 2020


  //>>>>>>>>>>>>>>>>>>>>>>>>>>>>>>>>>>>//
  //      Guess SCF, pcseg-0 Basis     //
  //<<<<<<<<<<<<<<<<<<<<<<<<<<<<<<<<<<<//

   => Loading Basis Set <=

    Name: PCSEG-0
    Role: ORBITAL
    Keyword: BASIS
    atoms 1, 4, 7, 10     entry C          line    71 file /opt/psi/4/master/share/psi4/basis/pcseg-0.gbs 
    atoms 2-3, 5-6, 8, 11 entry H          line    13 file /opt/psi/4/master/share/psi4/basis/pcseg-0.gbs 
    atoms 9, 12           entry O          line   103 file /opt/psi/4/master/share/psi4/basis/pcseg-0.gbs 


         ---------------------------------------------------------
                           SCF Castup computation                  
         ---------------------------------------------------------
                                   SCF
               by Justin Turney, Rob Parrish, Andy Simmonett
                          and Daniel G. A. Smith
                              RHF Reference
                        4 Threads,    500 MiB Core
         ---------------------------------------------------------

  ==> Geometry <==

    Molecular point group: c1
    Full point group: C1

    Geometry (in Angstrom), charge = 0, multiplicity = 1:

       Center              X                  Y                   Z               Mass       
    ------------   -----------------  -----------------  -----------------  -----------------
         C           -1.174143750690    -0.774963495581    -0.000122054786    12.000000000000
         H           -1.619161817890    -1.211058947381    -0.891063737386     1.007825032230
         H           -1.619236641990    -1.211251475481     0.890686519114     1.007825032230
         C           -1.174932290585     0.774899917772     0.000039302647    12.000000000000
         H           -1.619177205710     1.210967079305     0.890946487017     1.007825032230
         H           -1.619132193220     1.211156156308    -0.890797840783     1.007825032230
         C            0.353049756237     0.922269779828     0.000099395808    12.000000000000
         H            0.839052397153     1.892335002987     0.000209358772     1.007825032230
         O            0.767531608648     0.000115224486    -1.027348507260    15.994914619570
         C            0.353036077103    -0.922233903735    -0.000074620015    12.000000000000
         H            0.839029874680    -1.892302711198    -0.000156512105     1.007825032230
         O            0.767459859956    -0.000084681772     1.027403075640    15.994914619570

  Running in c1 symmetry.

  Rotational constants: A =      0.19851  B =      0.16225  C =      0.14673 [cm^-1]
  Rotational constants: A =   5951.15167  B =   4864.24719  C =   4398.87117 [MHz]
  Nuclear repulsion =  256.991052710517181

  Charge       = 0
  Multiplicity = 1
  Electrons    = 46
  Nalpha       = 23
  Nbeta        = 23

  ==> Algorithm <==

  SCF Algorithm Type is DF.
  DIIS enabled.
  MOM disabled.
  Fractional occupation disabled.
  Guess Type is SAD.
  Energy threshold   = 1.00e-10
  Density threshold  = 1.00e-10
  Integral threshold = 0.00e+00

  ==> Primary Basis <==

  Basis Set: PCSEG-0
    Blend: PCSEG-0
    Number of shells: 42
    Number of basis function: 66
    Number of Cartesian functions: 66
    Spherical Harmonics?: true
    Max angular momentum: 1

   => Loading Basis Set <=

    Name: (PCSEG-0 AUX)
    Role: JKFIT
    Keyword: DF_BASIS_SCF
    atoms 1, 4, 7, 10     entry C          line   198 file /opt/psi/4/master/share/psi4/basis/def2-universal-jkfit.gbs 
    atoms 2-3, 5-6, 8, 11 entry H          line    18 file /opt/psi/4/master/share/psi4/basis/def2-universal-jkfit.gbs 
    atoms 9, 12           entry O          line   318 file /opt/psi/4/master/share/psi4/basis/def2-universal-jkfit.gbs 

  ==> Integral Setup <==

  ==> DiskDFJK: Density-Fitted J/K Matrices <==

    J tasked:                  Yes
    K tasked:                  Yes
    wK tasked:                  No
    OpenMP threads:              4
    Integrals threads:           4
    Memory [MiB]:              375
    Algorithm:                Core
    Integral Cache:           NONE
    Schwarz Cutoff:          1E-12
    Fitting Condition:       1E-10

   => Auxiliary Basis Set <=

  Basis Set: (PCSEG-0 AUX)
    Blend: DEF2-UNIVERSAL-JKFIT
    Number of shells: 186
    Number of basis function: 562
    Number of Cartesian functions: 662
    Spherical Harmonics?: true
    Max angular momentum: 4

  Minimum eigenvalue in the overlap matrix is 1.2870138222E-03.
  Reciprocal condition number of the overlap matrix is 2.1259430438E-04.
    Using symmetric orthogonalization.

  ==> Pre-Iterations <==

  SCF Guess: Superposition of Atomic Densities via on-the-fly atomic UHF (no occupation information).

   -------------------------
    Irrep   Nso     Nmo    
   -------------------------
     A         66      66 
   -------------------------
    Total      66      66
   -------------------------

  ==> Iterations <==

                           Total Energy        Delta E     RMS |[F,P]|

   @DF-RHF iter SAD:  -303.69454955398663   -3.03695e+02   0.00000e+00 
   @DF-RHF iter   1:  -303.56576130095686    1.28788e-01   7.24072e-03 DIIS
   @DF-RHF iter   2:  -303.66480756062077   -9.90463e-02   3.96988e-03 DIIS
   @DF-RHF iter   3:  -303.69043719338237   -2.56296e-02   6.19734e-04 DIIS
   @DF-RHF iter   4:  -303.69162221000704   -1.18502e-03   1.96412e-04 DIIS
   @DF-RHF iter   5:  -303.69171794542746   -9.57354e-05   4.10717e-05 DIIS
   @DF-RHF iter   6:  -303.69172554320102   -7.59777e-06   8.37987e-06 DIIS
   @DF-RHF iter   7:  -303.69172594632659   -4.03126e-07   1.68601e-06 DIIS
   @DF-RHF iter   8:  -303.69172596041909   -1.40925e-08   5.41714e-07 DIIS
   @DF-RHF iter   9:  -303.69172596183347   -1.41438e-09   1.09353e-07 DIIS
   @DF-RHF iter  10:  -303.69172596191061   -7.71365e-11   1.85667e-08 DIIS
   @DF-RHF iter  11:  -303.69172596191220   -1.59162e-12   2.71142e-09 DIIS
   @DF-RHF iter  12:  -303.69172596191237   -1.70530e-13   4.70006e-10 DIIS
   @DF-RHF iter  13:  -303.69172596191271   -3.41061e-13   1.53988e-10 DIIS
   @DF-RHF iter  14:  -303.69172596191260    1.13687e-13   3.62197e-11 DIIS
  Energy and wave function converged.


  ==> Post-Iterations <==

    Orbital Energies [Eh]
    ---------------------

    Doubly Occupied:                                                      

       1A    -20.584536     2A    -20.584473     3A    -11.369650  
       4A    -11.369623     5A    -11.256158     6A    -11.255761  
       7A     -1.537508     8A     -1.312955     9A     -1.091706  
      10A     -1.008837    11A     -0.821963    12A     -0.790143  
      13A     -0.768244    14A     -0.680660    15A     -0.662996  
      16A     -0.658479    17A     -0.552255    18A     -0.534506  
      19A     -0.527401    20A     -0.524404    21A     -0.519617  
      22A     -0.467030    23A     -0.443193  

    Virtual:                                                              

      24A      0.203102    25A      0.231262    26A      0.236097  
      27A      0.242164    28A      0.253138    29A      0.267372  
      30A      0.314432    31A      0.350234    32A      0.350783  
      33A      0.382076    34A      0.406723    35A      0.464574  
      36A      0.570026    37A      0.796413    38A      0.807946  
      39A      0.820752    40A      0.925671    41A      0.932881  
      42A      0.947029    43A      0.950053    44A      1.003238  
      45A      1.005075    46A      1.030089    47A      1.060629  
      48A      1.072094    49A      1.134071    50A      1.149026  
      51A      1.170300    52A      1.174146    53A      1.210940  
      54A      1.237979    55A      1.424727    56A      1.454829  
      57A      1.482413    58A      1.521988    59A      1.690989  
      60A      1.705383    61A      1.927879    62A      1.950901  
      63A      2.140044    64A      2.299030    65A      2.374953  
      66A      2.441017  

    Final Occupation by Irrep:
              A 
    DOCC [    23 ]

  @DF-RHF Final Energy:  -303.69172596191260

   => Energetics <=

    Nuclear Repulsion Energy =            256.9910527105171809
    One-Electron Energy =                -922.7213585925574080
    Two-Electron Energy =                 362.0385799201276882
    Total Energy =                       -303.6917259619125957

Computation Completed

  //>>>>>>>>>>>>>>>>>>>>>>>>>>>>>>>>>>>//
  //                SCF                //
  //<<<<<<<<<<<<<<<<<<<<<<<<<<<<<<<<<<<//

   => Loading Basis Set <=

    Name: HEAVY-AUG-CC-PV(Q+D)Z
    Role: ORBITAL
    Keyword: BASIS
    atoms 1, 4, 7, 10     entry C          line   333 file /opt/psi/4/master/share/psi4/basis/heavy-aug-cc-pv_qpd_z.gbs 
    atoms 2-3, 5-6, 8, 11 entry H          line    86 file /opt/psi/4/master/share/psi4/basis/heavy-aug-cc-pv_qpd_z.gbs 
    atoms 9, 12           entry O          line   453 file /opt/psi/4/master/share/psi4/basis/heavy-aug-cc-pv_qpd_z.gbs 


         ---------------------------------------------------------
                                   SCF
               by Justin Turney, Rob Parrish, Andy Simmonett
                          and Daniel G. A. Smith
                              RHF Reference
                        4 Threads,    500 MiB Core
         ---------------------------------------------------------

  ==> Geometry <==

    Molecular point group: c1
    Full point group: C1

    Geometry (in Angstrom), charge = 0, multiplicity = 1:

       Center              X                  Y                   Z               Mass       
    ------------   -----------------  -----------------  -----------------  -----------------
         C           -1.174143750690    -0.774963495581    -0.000122054786    12.000000000000
         H           -1.619161817890    -1.211058947381    -0.891063737386     1.007825032230
         H           -1.619236641990    -1.211251475481     0.890686519114     1.007825032230
         C           -1.174932290585     0.774899917772     0.000039302647    12.000000000000
         H           -1.619177205710     1.210967079305     0.890946487017     1.007825032230
         H           -1.619132193220     1.211156156308    -0.890797840783     1.007825032230
         C            0.353049756237     0.922269779828     0.000099395808    12.000000000000
         H            0.839052397153     1.892335002987     0.000209358772     1.007825032230
         O            0.767531608648     0.000115224486    -1.027348507260    15.994914619570
         C            0.353036077103    -0.922233903735    -0.000074620015    12.000000000000
         H            0.839029874680    -1.892302711198    -0.000156512105     1.007825032230
         O            0.767459859956    -0.000084681772     1.027403075640    15.994914619570

  Running in c1 symmetry.

  Rotational constants: A =      0.19851  B =      0.16225  C =      0.14673 [cm^-1]
  Rotational constants: A =   5951.15167  B =   4864.24719  C =   4398.87117 [MHz]
  Nuclear repulsion =  256.991052710517181

  Charge       = 0
  Multiplicity = 1
  Electrons    = 46
  Nalpha       = 23
  Nbeta        = 23

  ==> Algorithm <==

  SCF Algorithm Type is DF.
  DIIS enabled.
  MOM disabled.
  Fractional occupation disabled.
  Guess Type is SAD.
  Energy threshold   = 1.00e-10
  Density threshold  = 1.00e-10
  Integral threshold = 0.00e+00

  ==> Primary Basis <==

  Basis Set: HEAVY-AUG-CC-PV(Q+D)Z
    Blend: HEAVY-AUG-CC-PV(Q+D)Z
    Number of shells: 180
    Number of basis function: 660
    Number of Cartesian functions: 840
    Spherical Harmonics?: true
    Max angular momentum: 4

   => Loading Basis Set <=

    Name: (HEAVY-AUG-CC-PV(Q+D)Z AUX)
    Role: JKFIT
    Keyword: DF_BASIS_SCF
    atoms 1, 4, 7, 10     entry C          line   214 file /opt/psi/4/master/share/psi4/basis/heavy-aug-cc-pvqz-jkfit.gbs 
    atoms 2-3, 5-6, 8, 11 entry H          line   116 file /opt/psi/4/master/share/psi4/basis/heavy-aug-cc-pvqz-jkfit.gbs 
    atoms 9, 12           entry O          line   354 file /opt/psi/4/master/share/psi4/basis/heavy-aug-cc-pvqz-jkfit.gbs 


  Computing basis projection from PCSEG-0 to HEAVY-AUG-CC-PV(Q+D)Z

  ==> Integral Setup <==

  ==> DiskDFJK: Density-Fitted J/K Matrices <==

    J tasked:                  Yes
    K tasked:                  Yes
    wK tasked:                  No
    OpenMP threads:              4
    Integrals threads:           4
    Memory [MiB]:              375
    Algorithm:                Disk
    Integral Cache:           NONE
    Schwarz Cutoff:          1E-12
    Fitting Condition:       1E-10

   => Auxiliary Basis Set <=

  Basis Set: (HEAVY-AUG-CC-PV(Q+D)Z AUX)
    Blend: HEAVY-AUG-CC-PVQZ-JKFIT
    Number of shells: 282
    Number of basis function: 1158
    Number of Cartesian functions: 1584
    Spherical Harmonics?: true
    Max angular momentum: 5

  Minimum eigenvalue in the overlap matrix is 1.0931285574E-06.
  Reciprocal condition number of the overlap matrix is 7.0099724208E-08.
    Using symmetric orthogonalization.

  ==> Pre-Iterations <==

  SCF Guess: Orbitals guess was supplied from a previous computation.

   -------------------------
    Irrep   Nso     Nmo    
   -------------------------
     A        660     660 
   -------------------------
    Total     660     660
   -------------------------

  ==> Iterations <==

                           Total Energy        Delta E     RMS |[F,P]|

   @DF-RHF iter   0:  -304.22242870351232   -3.04222e+02   4.48086e-03 
   @DF-RHF iter   1:  -304.73371732012657   -5.11289e-01   3.36562e-04 DIIS
   @DF-RHF iter   2:  -304.74974710349073   -1.60298e-02   1.53642e-04 DIIS
   @DF-RHF iter   3:  -304.75361822564696   -3.87112e-03   2.81180e-05 DIIS
   @DF-RHF iter   4:  -304.75389520808881   -2.76982e-04   8.45676e-06 DIIS
   @DF-RHF iter   5:  -304.75391749080609   -2.22827e-05   3.57748e-06 DIIS
   @DF-RHF iter   6:  -304.75392129611879   -3.80531e-06   8.40529e-07 DIIS
   @DF-RHF iter   7:  -304.75392160487365   -3.08755e-07   1.79265e-07 DIIS
   @DF-RHF iter   8:  -304.75392161991465   -1.50410e-08   4.56514e-08 DIIS
   @DF-RHF iter   9:  -304.75392162100428   -1.08963e-09   1.48705e-08 DIIS
   @DF-RHF iter  10:  -304.75392162109040   -8.61178e-11   3.82295e-09 DIIS
   @DF-RHF iter  11:  -304.75392162109813   -7.73070e-12   9.81576e-10 DIIS
   @DF-RHF iter  12:  -304.75392162109898   -8.52651e-13   2.82377e-10 DIIS
   @DF-RHF iter  13:  -304.75392162109870    2.84217e-13   4.63103e-11 DIIS
  Energy and wave function converged.


  ==> Post-Iterations <==

    Orbital Energies [Eh]
    ---------------------

    Doubly Occupied:                                                      

       1A    -20.565189     2A    -20.565152     3A    -11.348573  
       4A    -11.348536     5A    -11.236622     6A    -11.236054  
       7A     -1.490790     8A     -1.292205     9A     -1.067339  
      10A     -0.987853    11A     -0.810345    12A     -0.789490  
      13A     -0.746566    14A     -0.672427    15A     -0.651295  
      16A     -0.646583    17A     -0.534281    18A     -0.524588  
      19A     -0.519539    20A     -0.512018    21A     -0.510237  
      22A     -0.459728    23A     -0.433634  

    Virtual:                                                              

      24A      0.041412    25A      0.042854    26A      0.050666  
      27A      0.062621    28A      0.063925    29A      0.079819  
      30A      0.080143    31A      0.083439    32A      0.101424  
      33A      0.110249    34A      0.111673    35A      0.112245  
      36A      0.139347    37A      0.151640    38A      0.166295  
      39A      0.171436    40A      0.178460    41A      0.178828  
      42A      0.188831    43A      0.188969    44A      0.199059  
      45A      0.207256    46A      0.226476    47A      0.227211  
      48A      0.229671    49A      0.257263    50A      0.260929  
      51A      0.270278    52A      0.270848    53A      0.271818  
      54A      0.286590    55A      0.288156    56A      0.291032  
      57A      0.301074    58A      0.316656    59A      0.320005  
      60A      0.325015    61A      0.333735    62A      0.337634  
      63A      0.355676    64A      0.358154    65A      0.369503  
      66A      0.380978    67A      0.388137    68A      0.389569  
      69A      0.391551    70A      0.391735    71A      0.395724  
      72A      0.398824    73A      0.412337    74A      0.420381  
      75A      0.420621    76A      0.440241    77A      0.453063  
      78A      0.456141    79A      0.462789    80A      0.495123  
      81A      0.515202    82A      0.518848    83A      0.522853  
      84A      0.528486    85A      0.550756    86A      0.571953  
      87A      0.574251    88A      0.585319    89A      0.589180  
      90A      0.598580    91A      0.600157    92A      0.613226  
      93A      0.629217    94A      0.641254    95A      0.653775  
      96A      0.659963    97A      0.684909    98A      0.688887  
      99A      0.695709   100A      0.704759   101A      0.716102  
     102A      0.716692   103A      0.732383   104A      0.743512  
     105A      0.757752   106A      0.764518   107A      0.790005  
     108A      0.790359   109A      0.794287   110A      0.795408  
     111A      0.827260   112A      0.832051   113A      0.833095  
     114A      0.849236   115A      0.860812   116A      0.875727  
     117A      0.884471   118A      0.897009   119A      0.920018  
     120A      0.938719   121A      0.947566   122A      0.957819  
     123A      0.961204   124A      0.988506   125A      1.002269  
     126A      1.010132   127A      1.011289   128A      1.015992  
     129A      1.034007   130A      1.035438   131A      1.046682  
     132A      1.062538   133A      1.070066   134A      1.075580  
     135A      1.096315   136A      1.114686   137A      1.128886  
     138A      1.140215   139A      1.155018   140A      1.159055  
     141A      1.160278   142A      1.166416   143A      1.168841  
     144A      1.175939   145A      1.191259   146A      1.198099  
     147A      1.208947   148A      1.221967   149A      1.229406  
     150A      1.234545   151A      1.238429   152A      1.239433  
     153A      1.244919   154A      1.276412   155A      1.276873  
     156A      1.287864   157A      1.288061   158A      1.306483  
     159A      1.314780   160A      1.327841   161A      1.370686  
     162A      1.371287   163A      1.408020   164A      1.408950  
     165A      1.437087   166A      1.442634   167A      1.458879  
     168A      1.469725   169A      1.474762   170A      1.485579  
     171A      1.491244   172A      1.508327   173A      1.525338  
     174A      1.534795   175A      1.543910   176A      1.593424  
     177A      1.594284   178A      1.618305   179A      1.620362  
     180A      1.625493   181A      1.626461   182A      1.647718  
     183A      1.682877   184A      1.687507   185A      1.699058  
     186A      1.723636   187A      1.728537   188A      1.731007  
     189A      1.757406   190A      1.775803   191A      1.776219  
     192A      1.815141   193A      1.865501   194A      1.870723  
     195A      1.886015   196A      1.901033   197A      1.911940  
     198A      1.923842   199A      1.960935   200A      1.968462  
     201A      1.996920   202A      1.997174   203A      2.018115  
     204A      2.026419   205A      2.026520   206A      2.028283  
     207A      2.032875   208A      2.039777   209A      2.044087  
     210A      2.106795   211A      2.116321   212A      2.125277  
     213A      2.142018   214A      2.143331   215A      2.174088  
     216A      2.187957   217A      2.188144   218A      2.209195  
     219A      2.249277   220A      2.258505   221A      2.265824  
     222A      2.293585   223A      2.293746   224A      2.306484  
     225A      2.335761   226A      2.341626   227A      2.359092  
     228A      2.363303   229A      2.366795   230A      2.373270  
     231A      2.389316   232A      2.395664   233A      2.403098  
     234A      2.418648   235A      2.441264   236A      2.442397  
     237A      2.462735   238A      2.485186   239A      2.492485  
     240A      2.517441   241A      2.526261   242A      2.533153  
     243A      2.548404   244A      2.559878   245A      2.584229  
     246A      2.587476   247A      2.621249   248A      2.626318  
     249A      2.633790   250A      2.645086   251A      2.660398  
     252A      2.682471   253A      2.705821   254A      2.714079  
     255A      2.729122   256A      2.730871   257A      2.751240  
     258A      2.763382   259A      2.763844   260A      2.801393  
     261A      2.803287   262A      2.812102   263A      2.831872  
     264A      2.858195   265A      2.866433   266A      2.918880  
     267A      2.935270   268A      2.940977   269A      2.966557  
     270A      2.974721   271A      2.986833   272A      2.987028  
     273A      3.009047   274A      3.031511   275A      3.041185  
     276A      3.048508   277A      3.074658   278A      3.076357  
     279A      3.084032   280A      3.104046   281A      3.109755  
     282A      3.136544   283A      3.142841   284A      3.153270  
     285A      3.169709   286A      3.187357   287A      3.222712  
     288A      3.247840   289A      3.259606   290A      3.267917  
     291A      3.288079   292A      3.292688   293A      3.320067  
     294A      3.362756   295A      3.366875   296A      3.394590  
     297A      3.398162   298A      3.402702   299A      3.431273  
     300A      3.452764   301A      3.464607   302A      3.474275  
     303A      3.501684   304A      3.523767   305A      3.535659  
     306A      3.549311   307A      3.571973   308A      3.598168  
     309A      3.609733   310A      3.618344   311A      3.635615  
     312A      3.661233   313A      3.690698   314A      3.706430  
     315A      3.716749   316A      3.746842   317A      3.752589  
     318A      3.757193   319A      3.805369   320A      3.834524  
     321A      3.843104   322A      3.843706   323A      3.872647  
     324A      3.908161   325A      3.909041   326A      3.917168  
     327A      3.950278   328A      3.962772   329A      3.982093  
     330A      4.039998   331A      4.041236   332A      4.048125  
     333A      4.060895   334A      4.085052   335A      4.098995  
     336A      4.119886   337A      4.134502   338A      4.156986  
     339A      4.173168   340A      4.202786   341A      4.205993  
     342A      4.217725   343A      4.238083   344A      4.244574  
     345A      4.273164   346A      4.292661   347A      4.317335  
     348A      4.331490   349A      4.336211   350A      4.357212  
     351A      4.406210   352A      4.426917   353A      4.439562  
     354A      4.451710   355A      4.459509   356A      4.489456  
     357A      4.497569   358A      4.512015   359A      4.517043  
     360A      4.540761   361A      4.568914   362A      4.593962  
     363A      4.627368   364A      4.652594   365A      4.669359  
     366A      4.691655   367A      4.696524   368A      4.698322  
     369A      4.718517   370A      4.736699   371A      4.749601  
     372A      4.761321   373A      4.787707   374A      4.823607  
     375A      4.823786   376A      4.826424   377A      4.844066  
     378A      4.846267   379A      4.900927   380A      4.942405  
     381A      4.976463   382A      5.000303   383A      5.000591  
     384A      5.021077   385A      5.058850   386A      5.122430  
     387A      5.154850   388A      5.163926   389A      5.182954  
     390A      5.236973   391A      5.244553   392A      5.253042  
     393A      5.277037   394A      5.289272   395A      5.304894  
     396A      5.341955   397A      5.357771   398A      5.374396  
     399A      5.407326   400A      5.488589   401A      5.512568  
     402A      5.555204   403A      5.582417   404A      5.626956  
     405A      5.646875   406A      5.649175   407A      5.669266  
     408A      5.782220   409A      5.821719   410A      5.828628  
     411A      5.837561   412A      5.897853   413A      5.973260  
     414A      6.030673   415A      6.102539   416A      6.137497  
     417A      6.192864   418A      6.214200   419A      6.227617  
     420A      6.236471   421A      6.292733   422A      6.335390  
     423A      6.338373   424A      6.345612   425A      6.366529  
     426A      6.398152   427A      6.417297   428A      6.458882  
     429A      6.490882   430A      6.495505   431A      6.511242  
     432A      6.520245   433A      6.530685   434A      6.576886  
     435A      6.586503   436A      6.611793   437A      6.638492  
     438A      6.643903   439A      6.656317   440A      6.679793  
     441A      6.699727   442A      6.700512   443A      6.717278  
     444A      6.748298   445A      6.765584   446A      6.781992  
     447A      6.814380   448A      6.820321   449A      6.855307  
     450A      6.884976   451A      6.913061   452A      6.914876  
     453A      6.921452   454A      6.925487   455A      6.937801  
     456A      6.976585   457A      6.988213   458A      7.010391  
     459A      7.039440   460A      7.092607   461A      7.100968  
     462A      7.104407   463A      7.134007   464A      7.152605  
     465A      7.178991   466A      7.194091   467A      7.195801  
     468A      7.218654   469A      7.222506   470A      7.248958  
     471A      7.276407   472A      7.303993   473A      7.352618  
     474A      7.359366   475A      7.366406   476A      7.417852  
     477A      7.429583   478A      7.437035   479A      7.469148  
     480A      7.528332   481A      7.540991   482A      7.583768  
     483A      7.600224   484A      7.604044   485A      7.635412  
     486A      7.707214   487A      7.730726   488A      7.741067  
     489A      7.750775   490A      7.782451   491A      7.802175  
     492A      7.832974   493A      7.840978   494A      7.843300  
     495A      7.917505   496A      7.936174   497A      7.942872  
     498A      7.986238   499A      7.995969   500A      8.013784  
     501A      8.015142   502A      8.042179   503A      8.084103  
     504A      8.104914   505A      8.146012   506A      8.154789  
     507A      8.190546   508A      8.192729   509A      8.322372  
     510A      8.325878   511A      8.334991   512A      8.351312  
     513A      8.377920   514A      8.407778   515A      8.412645  
     516A      8.477889   517A      8.495680   518A      8.497106  
     519A      8.531927   520A      8.551648   521A      8.557594  
     522A      8.585944   523A      8.609623   524A      8.610948  
     525A      8.648937   526A      8.686331   527A      8.706736  
     528A      8.715606   529A      8.762500   530A      8.813720  
     531A      8.825253   532A      8.837485   533A      8.840776  
     534A      8.840987   535A      8.879731   536A      8.900111  
     537A      8.903606   538A      8.936035   539A      8.956928  
     540A      8.993141   541A      9.015806   542A      9.027416  
     543A      9.033586   544A      9.048186   545A      9.055600  
     546A      9.085289   547A      9.109398   548A      9.117151  
     549A      9.171626   550A      9.176635   551A      9.189127  
     552A      9.233550   553A      9.248407   554A      9.315083  
     555A      9.343052   556A      9.350947   557A      9.350975  
     558A      9.366081   559A      9.400929   560A      9.452788  
     561A      9.496529   562A      9.512403   563A      9.525681  
     564A      9.557131   565A      9.648642   566A      9.658099  
     567A      9.727331   568A      9.755274   569A      9.767813  
     570A      9.790316   571A      9.834471   572A      9.899496  
     573A      9.919336   574A      9.930484   575A      9.959597  
     576A     10.067745   577A     10.116956   578A     10.233521  
     579A     10.241850   580A     10.255901   581A     10.294406  
     582A     10.417107   583A     10.477913   584A     10.507336  
     585A     10.508721   586A     10.593020   587A     10.628521  
     588A     10.642596   589A     10.779808   590A     10.794671  
     591A     10.823913   592A     10.826579   593A     10.972152  
     594A     11.001234   595A     11.063904   596A     11.071478  
     597A     11.101636   598A     11.105398   599A     11.130737  
     600A     11.153232   601A     11.162201   602A     11.209752  
     603A     11.225563   604A     11.251706   605A     11.334161  
     606A     11.383274   607A     11.451679   608A     11.455320  
     609A     11.494387   610A     11.498463   611A     11.508129  
     612A     11.542387   613A     11.619349   614A     11.644792  
     615A     11.721888   616A     11.813631   617A     11.819853  
     618A     11.847417   619A     11.885556   620A     11.907858  
     621A     12.198550   622A     12.253468   623A     12.316385  
     624A     12.378261   625A     12.640745   626A     12.651185  
     627A     12.825386   628A     12.869940   629A     12.964353  
     630A     13.028181   631A     13.075634   632A     13.075908  
     633A     13.183035   634A     13.240277   635A     13.255867  
     636A     13.353996   637A     13.357460   638A     13.386082  
     639A     13.421686   640A     13.512220   641A     13.523057  
     642A     13.532625   643A     13.717555   644A     13.737116  
     645A     13.789010   646A     13.813356   647A     13.846599  
     648A     13.908118   649A     13.968748   650A     13.979322  
     651A     14.123237   652A     14.155023   653A     14.690156  
     654A     14.883766   655A     27.254867   656A     27.847659  
     657A     28.044355   658A     28.613639   659A     44.796609  
     660A     45.695590  

    Final Occupation by Irrep:
              A 
    DOCC [    23 ]

  @DF-RHF Final Energy:  -304.75392162109870

   => Energetics <=

    Nuclear Repulsion Energy =            256.9910527105171809
    One-Electron Energy =                -925.5918673906784306
    Two-Electron Energy =                 363.8468930590624950
    Total Energy =                       -304.7539216210986979

Computation Completed


Properties will be evaluated at   0.000000,   0.000000,   0.000000 [a0]

Properties computed using the SCF density matrix

  Nuclear Dipole Moment: [e a0]
     X:    -4.4912      Y:    -0.0001      Z:    -0.0002

  Electronic Dipole Moment: [e a0]
     X:     3.7195      Y:     0.0002      Z:     0.0001

  Dipole Moment: [e a0]
     X:    -0.7717      Y:     0.0001      Z:    -0.0000     Total:     0.7717

  Dipole Moment: [D]
     X:    -1.9616      Y:     0.0001      Z:    -0.0001     Total:     1.9616


*** tstop() called on n087 at Mon Jun  8 14:57:24 2020
Module time:
	user time   =     125.30 seconds =       2.09 minutes
	system time =       5.55 seconds =       0.09 minutes
	total time  =         34 seconds =       0.57 minutes
Total time:
	user time   =     125.30 seconds =       2.09 minutes
	system time =       5.55 seconds =       0.09 minutes
	total time  =         34 seconds =       0.57 minutes

*** tstart() called on n087
*** at Mon Jun  8 14:57:24 2020


  //>>>>>>>>>>>>>>>>>>>>>>>>>>>>>>>>>>>//
  //               DFMP2               //
  //<<<<<<<<<<<<<<<<<<<<<<<<<<<<<<<<<<<//

   => Loading Basis Set <=

    Name: (HEAVY-AUG-CC-PV(Q+D)Z AUX)
    Role: RIFIT
    Keyword: DF_BASIS_MP2
    atoms 1, 4, 7, 10     entry C          line   180 file /opt/psi/4/master/share/psi4/basis/heavy-aug-cc-pvqz-ri.gbs 
    atoms 2-3, 5-6, 8, 11 entry H          line    44 file /opt/psi/4/master/share/psi4/basis/heavy-aug-cc-pvqz-ri.gbs 
    atoms 9, 12           entry O          line   328 file /opt/psi/4/master/share/psi4/basis/heavy-aug-cc-pvqz-ri.gbs 

	 --------------------------------------------------------
	                          DF-MP2                         
	      2nd-Order Density-Fitted Moller-Plesset Theory     
	              RMP2 Wavefunction,   4 Threads             
	                                                         
	        Rob Parrish, Justin Turney, Andy Simmonett,      
	           Ed Hohenstein, and C. David Sherrill          
	 --------------------------------------------------------

   => Auxiliary Basis Set <=

  Basis Set: (HEAVY-AUG-CC-PV(Q+D)Z AUX)
    Blend: HEAVY-AUG-CC-PVQZ-RI
    Number of shells: 306
    Number of basis function: 1338
    Number of Cartesian functions: 1842
    Spherical Harmonics?: true
    Max angular momentum: 5

	 --------------------------------------------------------
	                 NBF =   660, NAUX =  1338
	 --------------------------------------------------------
	   CLASS    FOCC     OCC    AOCC    AVIR     VIR    FVIR
	   PAIRS       6      23      17     637     637       0
	 --------------------------------------------------------

	-----------------------------------------------------------
	 ==================> DF-MP2 Energies <==================== 
	-----------------------------------------------------------
	 Reference Energy          =    -304.7539216210986979 [Eh]
	 Singles Energy            =      -0.0000000000000000 [Eh]
	 Same-Spin Energy          =      -0.2941231654384786 [Eh]
	 Opposite-Spin Energy      =      -0.9238483603730784 [Eh]
	 Correlation Energy        =      -1.2179715258115569 [Eh]
	 Total Energy              =    -305.9718931469102472 [Eh]
	-----------------------------------------------------------
	 ================> DF-SCS-MP2 Energies <================== 
	-----------------------------------------------------------
	 SCS Same-Spin Scale       =       0.3333333333333333 [-]
	 SCS Opposite-Spin Scale   =       1.2000000000000000 [-]
	 SCS Same-Spin Energy      =      -0.0980410551461595 [Eh]
	 SCS Opposite-Spin Energy  =      -1.1086180324476940 [Eh]
	 SCS Correlation Energy    =      -1.2066590875938534 [Eh]
	 SCS Total Energy          =    -305.9605807086925324 [Eh]
	-----------------------------------------------------------


*** tstop() called on n087 at Mon Jun  8 14:57:31 2020
Module time:
	user time   =      24.00 seconds =       0.40 minutes
	system time =       0.22 seconds =       0.00 minutes
	total time  =          7 seconds =       0.12 minutes
Total time:
	user time   =     149.30 seconds =       2.49 minutes
	system time =       5.77 seconds =       0.10 minutes
	total time  =         41 seconds =       0.68 minutes

========================OPTAVC-XTPL==========================

MP2/QZ correlation energy -1.2179715258115569
SCF/QZ reference energy -304.7539216210987


=============================================================

Scratch directory: /tmp/

Scratch directory: /tmp/
    SCF Algorithm Type (re)set to DF.

*** tstart() called on n087
*** at Mon Jun  8 14:57:31 2020


  //>>>>>>>>>>>>>>>>>>>>>>>>>>>>>>>>>>>//
  //      Guess SCF, pcseg-0 Basis     //
  //<<<<<<<<<<<<<<<<<<<<<<<<<<<<<<<<<<<//

   => Loading Basis Set <=

    Name: PCSEG-0
    Role: ORBITAL
    Keyword: BASIS
    atoms 1, 4, 7, 10     entry C          line    71 file /opt/psi/4/master/share/psi4/basis/pcseg-0.gbs 
    atoms 2-3, 5-6, 8, 11 entry H          line    13 file /opt/psi/4/master/share/psi4/basis/pcseg-0.gbs 
    atoms 9, 12           entry O          line   103 file /opt/psi/4/master/share/psi4/basis/pcseg-0.gbs 


         ---------------------------------------------------------
                           SCF Castup computation                  
         ---------------------------------------------------------
                                   SCF
               by Justin Turney, Rob Parrish, Andy Simmonett
                          and Daniel G. A. Smith
                              RHF Reference
                        4 Threads,    500 MiB Core
         ---------------------------------------------------------

  ==> Geometry <==

    Molecular point group: c1
    Full point group: C1

    Geometry (in Angstrom), charge = 0, multiplicity = 1:

       Center              X                  Y                   Z               Mass       
    ------------   -----------------  -----------------  -----------------  -----------------
         C           -1.174143750690    -0.774963495581    -0.000122054786    12.000000000000
         H           -1.619161817890    -1.211058947381    -0.891063737386     1.007825032230
         H           -1.619236641990    -1.211251475481     0.890686519114     1.007825032230
         C           -1.174932290585     0.774899917772     0.000039302647    12.000000000000
         H           -1.619177205710     1.210967079305     0.890946487017     1.007825032230
         H           -1.619132193220     1.211156156308    -0.890797840783     1.007825032230
         C            0.353049756237     0.922269779828     0.000099395808    12.000000000000
         H            0.839052397153     1.892335002987     0.000209358772     1.007825032230
         O            0.767531608648     0.000115224486    -1.027348507260    15.994914619570
         C            0.353036077103    -0.922233903735    -0.000074620015    12.000000000000
         H            0.839029874680    -1.892302711198    -0.000156512105     1.007825032230
         O            0.767459859956    -0.000084681772     1.027403075640    15.994914619570

  Running in c1 symmetry.

  Rotational constants: A =      0.19851  B =      0.16225  C =      0.14673 [cm^-1]
  Rotational constants: A =   5951.15167  B =   4864.24719  C =   4398.87117 [MHz]
  Nuclear repulsion =  256.991052710517181

  Charge       = 0
  Multiplicity = 1
  Electrons    = 46
  Nalpha       = 23
  Nbeta        = 23

  ==> Algorithm <==

  SCF Algorithm Type is DF.
  DIIS enabled.
  MOM disabled.
  Fractional occupation disabled.
  Guess Type is SAD.
  Energy threshold   = 1.00e-10
  Density threshold  = 1.00e-10
  Integral threshold = 0.00e+00

  ==> Primary Basis <==

  Basis Set: PCSEG-0
    Blend: PCSEG-0
    Number of shells: 42
    Number of basis function: 66
    Number of Cartesian functions: 66
    Spherical Harmonics?: true
    Max angular momentum: 1

   => Loading Basis Set <=

    Name: (PCSEG-0 AUX)
    Role: JKFIT
    Keyword: DF_BASIS_SCF
    atoms 1, 4, 7, 10     entry C          line   198 file /opt/psi/4/master/share/psi4/basis/def2-universal-jkfit.gbs 
    atoms 2-3, 5-6, 8, 11 entry H          line    18 file /opt/psi/4/master/share/psi4/basis/def2-universal-jkfit.gbs 
    atoms 9, 12           entry O          line   318 file /opt/psi/4/master/share/psi4/basis/def2-universal-jkfit.gbs 

  ==> Integral Setup <==

  ==> DiskDFJK: Density-Fitted J/K Matrices <==

    J tasked:                  Yes
    K tasked:                  Yes
    wK tasked:                  No
    OpenMP threads:              4
    Integrals threads:           4
    Memory [MiB]:              375
    Algorithm:                Core
    Integral Cache:           NONE
    Schwarz Cutoff:          1E-12
    Fitting Condition:       1E-10

   => Auxiliary Basis Set <=

  Basis Set: (PCSEG-0 AUX)
    Blend: DEF2-UNIVERSAL-JKFIT
    Number of shells: 186
    Number of basis function: 562
    Number of Cartesian functions: 662
    Spherical Harmonics?: true
    Max angular momentum: 4

  Minimum eigenvalue in the overlap matrix is 1.2870138222E-03.
  Reciprocal condition number of the overlap matrix is 2.1259430438E-04.
    Using symmetric orthogonalization.

  ==> Pre-Iterations <==

  SCF Guess: Superposition of Atomic Densities via on-the-fly atomic UHF (no occupation information).

   -------------------------
    Irrep   Nso     Nmo    
   -------------------------
     A         66      66 
   -------------------------
    Total      66      66
   -------------------------

  ==> Iterations <==

                           Total Energy        Delta E     RMS |[F,P]|

   @DF-RHF iter SAD:  -303.69454955424635   -3.03695e+02   0.00000e+00 
   @DF-RHF iter   1:  -303.56576130123307    1.28788e-01   7.24072e-03 DIIS
   @DF-RHF iter   2:  -303.66480756089845   -9.90463e-02   3.96988e-03 DIIS
   @DF-RHF iter   3:  -303.69043719366152   -2.56296e-02   6.19734e-04 DIIS
   @DF-RHF iter   4:  -303.69162221028580   -1.18502e-03   1.96412e-04 DIIS
   @DF-RHF iter   5:  -303.69171794570627   -9.57354e-05   4.10717e-05 DIIS
   @DF-RHF iter   6:  -303.69172554348023   -7.59777e-06   8.37987e-06 DIIS
   @DF-RHF iter   7:  -303.69172594660557   -4.03125e-07   1.68601e-06 DIIS
   @DF-RHF iter   8:  -303.69172596069814   -1.40926e-08   5.41714e-07 DIIS
   @DF-RHF iter   9:  -303.69172596211291   -1.41478e-09   1.09353e-07 DIIS
   @DF-RHF iter  10:  -303.69172596218903   -7.61133e-11   1.85667e-08 DIIS
   @DF-RHF iter  11:  -303.69172596219124   -2.21689e-12   2.71141e-09 DIIS
   @DF-RHF iter  12:  -303.69172596219164   -3.97904e-13   4.70006e-10 DIIS
   @DF-RHF iter  13:  -303.69172596219119    4.54747e-13   1.53988e-10 DIIS
   @DF-RHF iter  14:  -303.69172596219164   -4.54747e-13   3.62199e-11 DIIS
  Energy and wave function converged.


  ==> Post-Iterations <==

    Orbital Energies [Eh]
    ---------------------

    Doubly Occupied:                                                      

       1A    -20.584536     2A    -20.584473     3A    -11.369650  
       4A    -11.369623     5A    -11.256158     6A    -11.255761  
       7A     -1.537508     8A     -1.312955     9A     -1.091706  
      10A     -1.008837    11A     -0.821963    12A     -0.790143  
      13A     -0.768244    14A     -0.680660    15A     -0.662996  
      16A     -0.658479    17A     -0.552255    18A     -0.534506  
      19A     -0.527401    20A     -0.524404    21A     -0.519617  
      22A     -0.467030    23A     -0.443193  

    Virtual:                                                              

      24A      0.203102    25A      0.231262    26A      0.236097  
      27A      0.242164    28A      0.253138    29A      0.267372  
      30A      0.314432    31A      0.350234    32A      0.350783  
      33A      0.382076    34A      0.406723    35A      0.464574  
      36A      0.570026    37A      0.796413    38A      0.807946  
      39A      0.820752    40A      0.925671    41A      0.932881  
      42A      0.947029    43A      0.950053    44A      1.003238  
      45A      1.005075    46A      1.030089    47A      1.060629  
      48A      1.072094    49A      1.134071    50A      1.149026  
      51A      1.170300    52A      1.174146    53A      1.210940  
      54A      1.237979    55A      1.424727    56A      1.454829  
      57A      1.482413    58A      1.521988    59A      1.690989  
      60A      1.705383    61A      1.927879    62A      1.950901  
      63A      2.140044    64A      2.299030    65A      2.374953  
      66A      2.441017  

    Final Occupation by Irrep:
              A 
    DOCC [    23 ]

  @DF-RHF Final Energy:  -303.69172596219164

   => Energetics <=

    Nuclear Repulsion Energy =            256.9910527105171809
    One-Electron Energy =                -922.7213585928411703
    Two-Electron Energy =                 362.0385799201324062
    Total Energy =                       -303.6917259621916401

Computation Completed

  //>>>>>>>>>>>>>>>>>>>>>>>>>>>>>>>>>>>//
  //                SCF                //
  //<<<<<<<<<<<<<<<<<<<<<<<<<<<<<<<<<<<//

   => Loading Basis Set <=

    Name: HEAVY-AUG-CC-PV(T+D)Z
    Role: ORBITAL
    Keyword: BASIS
    atoms 1, 4, 7, 10     entry C          line   273 file /opt/psi/4/master/share/psi4/basis/heavy-aug-cc-pv_tpd_z.gbs 
    atoms 2-3, 5-6, 8, 11 entry H          line    86 file /opt/psi/4/master/share/psi4/basis/heavy-aug-cc-pv_tpd_z.gbs 
    atoms 9, 12           entry O          line   365 file /opt/psi/4/master/share/psi4/basis/heavy-aug-cc-pv_tpd_z.gbs 


         ---------------------------------------------------------
                                   SCF
               by Justin Turney, Rob Parrish, Andy Simmonett
                          and Daniel G. A. Smith
                              RHF Reference
                        4 Threads,    500 MiB Core
         ---------------------------------------------------------

  ==> Geometry <==

    Molecular point group: c1
    Full point group: C1

    Geometry (in Angstrom), charge = 0, multiplicity = 1:

       Center              X                  Y                   Z               Mass       
    ------------   -----------------  -----------------  -----------------  -----------------
         C           -1.174143750690    -0.774963495581    -0.000122054786    12.000000000000
         H           -1.619161817890    -1.211058947381    -0.891063737386     1.007825032230
         H           -1.619236641990    -1.211251475481     0.890686519114     1.007825032230
         C           -1.174932290585     0.774899917772     0.000039302647    12.000000000000
         H           -1.619177205710     1.210967079305     0.890946487017     1.007825032230
         H           -1.619132193220     1.211156156308    -0.890797840783     1.007825032230
         C            0.353049756237     0.922269779828     0.000099395808    12.000000000000
         H            0.839052397153     1.892335002987     0.000209358772     1.007825032230
         O            0.767531608648     0.000115224486    -1.027348507260    15.994914619570
         C            0.353036077103    -0.922233903735    -0.000074620015    12.000000000000
         H            0.839029874680    -1.892302711198    -0.000156512105     1.007825032230
         O            0.767459859956    -0.000084681772     1.027403075640    15.994914619570

  Running in c1 symmetry.

  Rotational constants: A =      0.19851  B =      0.16225  C =      0.14673 [cm^-1]
  Rotational constants: A =   5951.15167  B =   4864.24719  C =   4398.87117 [MHz]
  Nuclear repulsion =  256.991052710517181

  Charge       = 0
  Multiplicity = 1
  Electrons    = 46
  Nalpha       = 23
  Nbeta        = 23

  ==> Algorithm <==

  SCF Algorithm Type is DF.
  DIIS enabled.
  MOM disabled.
  Fractional occupation disabled.
  Guess Type is SAD.
  Energy threshold   = 1.00e-10
  Density threshold  = 1.00e-10
  Integral threshold = 0.00e+00

  ==> Primary Basis <==

  Basis Set: HEAVY-AUG-CC-PV(T+D)Z
    Blend: HEAVY-AUG-CC-PV(T+D)Z
    Number of shells: 120
    Number of basis function: 360
    Number of Cartesian functions: 420
    Spherical Harmonics?: true
    Max angular momentum: 3

   => Loading Basis Set <=

    Name: (HEAVY-AUG-CC-PV(T+D)Z AUX)
    Role: JKFIT
    Keyword: DF_BASIS_SCF
    atoms 1, 4, 7, 10     entry C          line   200 file /opt/psi/4/master/share/psi4/basis/heavy-aug-cc-pvtz-jkfit.gbs 
    atoms 2-3, 5-6, 8, 11 entry H          line   116 file /opt/psi/4/master/share/psi4/basis/heavy-aug-cc-pvtz-jkfit.gbs 
    atoms 9, 12           entry O          line   324 file /opt/psi/4/master/share/psi4/basis/heavy-aug-cc-pvtz-jkfit.gbs 


  Computing basis projection from PCSEG-0 to HEAVY-AUG-CC-PV(T+D)Z

  ==> Integral Setup <==

  ==> DiskDFJK: Density-Fitted J/K Matrices <==

    J tasked:                  Yes
    K tasked:                  Yes
    wK tasked:                  No
    OpenMP threads:              4
    Integrals threads:           4
    Memory [MiB]:              375
    Algorithm:                Disk
    Integral Cache:           NONE
    Schwarz Cutoff:          1E-12
    Fitting Condition:       1E-10

   => Auxiliary Basis Set <=

  Basis Set: (HEAVY-AUG-CC-PV(T+D)Z AUX)
    Blend: HEAVY-AUG-CC-PVTZ-JKFIT
    Number of shells: 240
    Number of basis function: 804
    Number of Cartesian functions: 996
    Spherical Harmonics?: true
    Max angular momentum: 4

  Minimum eigenvalue in the overlap matrix is 5.5287141588E-06.
  Reciprocal condition number of the overlap matrix is 4.0420423370E-07.
    Using symmetric orthogonalization.

  ==> Pre-Iterations <==

  SCF Guess: Orbitals guess was supplied from a previous computation.

   -------------------------
    Irrep   Nso     Nmo    
   -------------------------
     A        360     360 
   -------------------------
    Total     360     360
   -------------------------

  ==> Iterations <==

                           Total Energy        Delta E     RMS |[F,P]|

   @DF-RHF iter   0:  -304.36285003728284   -3.04363e+02   4.15839e-03 
   @DF-RHF iter   1:  -304.71636971340314   -3.53520e-01   5.72448e-04 DIIS
   @DF-RHF iter   2:  -304.73153026590222   -1.51606e-02   2.71752e-04 DIIS
   @DF-RHF iter   3:  -304.73522170665365   -3.69144e-03   4.87284e-05 DIIS
   @DF-RHF iter   4:  -304.73548557899812   -2.63872e-04   1.57919e-05 DIIS
   @DF-RHF iter   5:  -304.73550662784970   -2.10489e-05   6.25236e-06 DIIS
   @DF-RHF iter   6:  -304.73551052552125   -3.89767e-06   1.42004e-06 DIIS
   @DF-RHF iter   7:  -304.73551079101514   -2.65494e-07   3.12449e-07 DIIS
   @DF-RHF iter   8:  -304.73551080523106   -1.42159e-08   7.95786e-08 DIIS
   @DF-RHF iter   9:  -304.73551080616244   -9.31379e-10   2.58919e-08 DIIS
   @DF-RHF iter  10:  -304.73551080624770   -8.52651e-11   6.47439e-09 DIIS
   @DF-RHF iter  11:  -304.73551080625418   -6.48015e-12   1.69294e-09 DIIS
   @DF-RHF iter  12:  -304.73551080625418    0.00000e+00   4.79233e-10 DIIS
   @DF-RHF iter  13:  -304.73551080625447   -2.84217e-13   7.65801e-11 DIIS
  Energy and wave function converged.


  ==> Post-Iterations <==

    Orbital Energies [Eh]
    ---------------------

    Doubly Occupied:                                                      

       1A    -20.568135     2A    -20.568099     3A    -11.349674  
       4A    -11.349639     5A    -11.237704     6A    -11.237139  
       7A     -1.491597     8A     -1.293002     9A     -1.067588  
      10A     -0.988135    11A     -0.810440    12A     -0.789649  
      13A     -0.746523    14A     -0.672328    15A     -0.651315  
      16A     -0.646434    17A     -0.534206    18A     -0.524432  
      19A     -0.519407    20A     -0.511943    21A     -0.510038  
      22A     -0.459464    23A     -0.433434  

    Virtual:                                                              

      24A      0.050340    25A      0.050962    26A      0.059703  
      27A      0.072057    28A      0.073414    29A      0.092444  
      30A      0.093544    31A      0.096705    32A      0.116615  
      33A      0.126304    34A      0.127402    35A      0.130070  
      36A      0.162104    37A      0.176061    38A      0.195275  
      39A      0.204140    40A      0.206504    41A      0.214122  
      42A      0.220415    43A      0.228362    44A      0.233848  
      45A      0.249369    46A      0.268505    47A      0.268602  
      48A      0.277124    49A      0.295353    50A      0.300773  
      51A      0.312935    52A      0.331207    53A      0.335313  
      54A      0.341762    55A      0.347759    56A      0.356255  
      57A      0.356952    58A      0.362550    59A      0.374760  
      60A      0.397657    61A      0.404438    62A      0.412736  
      63A      0.421281    64A      0.432387    65A      0.446379  
      66A      0.457845    67A      0.465025    68A      0.485322  
      69A      0.492962    70A      0.503848    71A      0.510835  
      72A      0.516679    73A      0.519725    74A      0.526959  
      75A      0.528713    76A      0.543663    77A      0.545880  
      78A      0.580878    79A      0.591973    80A      0.608308  
      81A      0.613171    82A      0.620654    83A      0.653769  
      84A      0.658713    85A      0.673191    86A      0.722078  
      87A      0.735838    88A      0.747573    89A      0.753864  
      90A      0.770278    91A      0.780894    92A      0.791218  
      93A      0.797134    94A      0.815631    95A      0.818491  
      96A      0.828004    97A      0.843971    98A      0.877616  
      99A      0.891306   100A      0.926857   101A      0.928736  
     102A      0.938728   103A      0.945986   104A      0.970384  
     105A      0.985543   106A      0.998642   107A      1.032112  
     108A      1.037097   109A      1.038532   110A      1.060360  
     111A      1.082288   112A      1.096427   113A      1.114138  
     114A      1.120797   115A      1.138215   116A      1.160726  
     117A      1.185452   118A      1.222817   119A      1.247336  
     120A      1.251746   121A      1.261053   122A      1.283297  
     123A      1.321636   124A      1.329813   125A      1.335741  
     126A      1.352892   127A      1.373453   128A      1.383822  
     129A      1.398606   130A      1.403655   131A      1.415128  
     132A      1.446464   133A      1.447645   134A      1.457900  
     135A      1.483333   136A      1.499128   137A      1.505842  
     138A      1.528603   139A      1.546547   140A      1.560276  
     141A      1.581581   142A      1.586238   143A      1.586846  
     144A      1.589092   145A      1.599915   146A      1.654232  
     147A      1.656695   148A      1.670192   149A      1.677155  
     150A      1.684092   151A      1.698680   152A      1.707820  
     153A      1.715617   154A      1.731728   155A      1.735568  
     156A      1.750318   157A      1.752108   158A      1.791878  
     159A      1.799707   160A      1.806896   161A      1.822935  
     162A      1.901646   163A      1.902139   164A      1.930417  
     165A      1.939240   166A      1.949838   167A      1.984644  
     168A      1.990409   169A      2.003169   170A      2.007811  
     171A      2.026817   172A      2.046423   173A      2.055210  
     174A      2.058696   175A      2.150323   176A      2.151469  
     177A      2.209106   178A      2.252269   179A      2.300690  
     180A      2.333564   181A      2.392107   182A      2.401493  
     183A      2.419789   184A      2.443602   185A      2.450937  
     186A      2.472130   187A      2.504096   188A      2.508284  
     189A      2.540633   190A      2.579491   191A      2.628484  
     192A      2.646298   193A      2.682066   194A      2.685865  
     195A      2.723815   196A      2.769128   197A      2.787446  
     198A      2.875398   199A      2.875545   200A      2.890854  
     201A      2.914436   202A      2.921389   203A      2.954053  
     204A      2.959091   205A      2.963899   206A      3.076613  
     207A      3.097963   208A      3.119187   209A      3.127473  
     210A      3.181209   211A      3.186553   212A      3.204724  
     213A      3.215610   214A      3.240207   215A      3.261472  
     216A      3.306499   217A      3.332594   218A      3.408380  
     219A      3.411924   220A      3.414402   221A      3.434592  
     222A      3.440998   223A      3.471758   224A      3.484388  
     225A      3.500963   226A      3.524584   227A      3.538732  
     228A      3.602352   229A      3.626489   230A      3.630462  
     231A      3.667115   232A      3.682684   233A      3.695581  
     234A      3.706249   235A      3.728337   236A      3.730135  
     237A      3.749248   238A      3.816114   239A      3.832826  
     240A      3.843017   241A      3.866054   242A      3.873769  
     243A      3.926681   244A      3.952155   245A      3.959837  
     246A      3.961331   247A      3.964532   248A      4.004102  
     249A      4.018526   250A      4.048941   251A      4.053460  
     252A      4.073870   253A      4.105358   254A      4.111739  
     255A      4.144788   256A      4.163348   257A      4.169615  
     258A      4.180101   259A      4.185458   260A      4.211887  
     261A      4.234971   262A      4.244838   263A      4.258189  
     264A      4.263730   265A      4.267793   266A      4.315905  
     267A      4.343509   268A      4.365740   269A      4.424621  
     270A      4.471292   271A      4.479247   272A      4.481964  
     273A      4.495652   274A      4.511544   275A      4.526637  
     276A      4.552020   277A      4.583249   278A      4.637975  
     279A      4.688082   280A      4.688831   281A      4.702063  
     282A      4.706193   283A      4.730813   284A      4.743807  
     285A      4.755808   286A      4.805974   287A      4.820338  
     288A      4.820995   289A      4.837815   290A      4.885677  
     291A      4.907533   292A      4.957523   293A      4.963825  
     294A      4.964484   295A      5.096721   296A      5.117423  
     297A      5.125109   298A      5.190466   299A      5.194071  
     300A      5.238641   301A      5.266269   302A      5.282169  
     303A      5.394351   304A      5.417408   305A      5.435242  
     306A      5.465053   307A      5.472512   308A      5.580638  
     309A      5.581604   310A      5.596037   311A      5.653031  
     312A      5.705101   313A      5.712965   314A      5.717377  
     315A      5.862244   316A      5.868849   317A      5.897425  
     318A      5.925756   319A      6.060828   320A      6.122819  
     321A      6.140815   322A      6.205535   323A      6.240634  
     324A      6.281080   325A      6.284291   326A      6.347738  
     327A      6.383790   328A      6.492795   329A      6.559677  
     330A      6.901146   331A      6.901468   332A      6.939363  
     333A      6.962565   334A      6.996055   335A      7.024275  
     336A      7.104576   337A      7.128284   338A      7.172269  
     339A      7.189049   340A      7.226062   341A      7.238133  
     342A      7.389137   343A      7.487946   344A      7.587861  
     345A      7.608604   346A      7.634288   347A      7.736718  
     348A      7.793133   349A      7.820670   350A      7.910629  
     351A      8.037979   352A      8.194450   353A      8.219471  
     354A      8.226882   355A     14.245124   356A     15.437382  
     357A     15.552632   358A     15.865154   359A     17.390396  
     360A     18.706707  

    Final Occupation by Irrep:
              A 
    DOCC [    23 ]

  @DF-RHF Final Energy:  -304.73551080625447

   => Energetics <=

    Nuclear Repulsion Energy =            256.9910527105171809
    One-Electron Energy =                -925.5324796629067805
    Two-Electron Energy =                 363.8059161461351891
    Total Energy =                       -304.7355108062544673

Computation Completed


Properties will be evaluated at   0.000000,   0.000000,   0.000000 [a0]

Properties computed using the SCF density matrix

  Nuclear Dipole Moment: [e a0]
     X:    -4.4912      Y:    -0.0001      Z:    -0.0002

  Electronic Dipole Moment: [e a0]
     X:     3.7190      Y:     0.0002      Z:     0.0001

  Dipole Moment: [e a0]
     X:    -0.7722      Y:     0.0001      Z:    -0.0000     Total:     0.7722

  Dipole Moment: [D]
     X:    -1.9627      Y:     0.0001      Z:    -0.0001     Total:     1.9627


*** tstop() called on n087 at Mon Jun  8 14:57:41 2020
Module time:
	user time   =      35.43 seconds =       0.59 minutes
	system time =       1.93 seconds =       0.03 minutes
	total time  =         10 seconds =       0.17 minutes
Total time:
	user time   =     185.20 seconds =       3.09 minutes
	system time =       7.86 seconds =       0.13 minutes
	total time  =         51 seconds =       0.85 minutes

*** tstart() called on n087
*** at Mon Jun  8 14:57:41 2020


  //>>>>>>>>>>>>>>>>>>>>>>>>>>>>>>>>>>>//
  //               DFMP2               //
  //<<<<<<<<<<<<<<<<<<<<<<<<<<<<<<<<<<<//

   => Loading Basis Set <=

    Name: (HEAVY-AUG-CC-PV(T+D)Z AUX)
    Role: RIFIT
    Keyword: DF_BASIS_MP2
    atoms 1, 4, 7, 10     entry C          line   148 file /opt/psi/4/master/share/psi4/basis/heavy-aug-cc-pvtz-ri.gbs 
    atoms 2-3, 5-6, 8, 11 entry H          line    44 file /opt/psi/4/master/share/psi4/basis/heavy-aug-cc-pvtz-ri.gbs 
    atoms 9, 12           entry O          line   264 file /opt/psi/4/master/share/psi4/basis/heavy-aug-cc-pvtz-ri.gbs 

	 --------------------------------------------------------
	                          DF-MP2                         
	      2nd-Order Density-Fitted Moller-Plesset Theory     
	              RMP2 Wavefunction,   4 Threads             
	                                                         
	        Rob Parrish, Justin Turney, Andy Simmonett,      
	           Ed Hohenstein, and C. David Sherrill          
	 --------------------------------------------------------

   => Auxiliary Basis Set <=

  Basis Set: (HEAVY-AUG-CC-PV(T+D)Z AUX)
    Blend: HEAVY-AUG-CC-PVTZ-RI
    Number of shells: 228
    Number of basis function: 816
    Number of Cartesian functions: 1026
    Spherical Harmonics?: true
    Max angular momentum: 4

	 --------------------------------------------------------
	                 NBF =   360, NAUX =   816
	 --------------------------------------------------------
	   CLASS    FOCC     OCC    AOCC    AVIR     VIR    FVIR
	   PAIRS       6      23      17     337     337       0
	 --------------------------------------------------------

	-----------------------------------------------------------
	 ==================> DF-MP2 Energies <==================== 
	-----------------------------------------------------------
	 Reference Energy          =    -304.7355108062544673 [Eh]
	 Singles Energy            =      -0.0000000000000000 [Eh]
	 Same-Spin Energy          =      -0.2854788427855423 [Eh]
	 Opposite-Spin Energy      =      -0.8633210372917038 [Eh]
	 Correlation Energy        =      -1.1487998800772461 [Eh]
	 Total Energy              =    -305.8843106863317303 [Eh]
	-----------------------------------------------------------
	 ================> DF-SCS-MP2 Energies <================== 
	-----------------------------------------------------------
	 SCS Same-Spin Scale       =       0.3333333333333333 [-]
	 SCS Opposite-Spin Scale   =       1.2000000000000000 [-]
	 SCS Same-Spin Energy      =      -0.0951596142618474 [Eh]
	 SCS Opposite-Spin Energy  =      -1.0359852447500446 [Eh]
	 SCS Correlation Energy    =      -1.1311448590118920 [Eh]
	 SCS Total Energy          =    -305.8666556652663644 [Eh]
	-----------------------------------------------------------


*** tstop() called on n087 at Mon Jun  8 14:57:43 2020
Module time:
	user time   =       7.01 seconds =       0.12 minutes
	system time =       0.10 seconds =       0.00 minutes
	total time  =          2 seconds =       0.03 minutes
Total time:
	user time   =     192.22 seconds =       3.20 minutes
	system time =       7.96 seconds =       0.13 minutes
	total time  =         53 seconds =       0.88 minutes

========================OPTAVC-XTPL==========================

MP2/TZ correlation energy -1.148799880077246

=============================================================

    Psi4 stopped on: Monday, 08 June 2020 02:57PM
    Psi4 wall time for execution: 0:00:52.65

*** Psi4 exiting successfully. Buy a developer a beer!
