
    -----------------------------------------------------------------------
          Psi4: An Open-Source Ab Initio Electronic Structure Package
                               Psi4 1.4a2.dev478 

                         Git: Rev {master} f722895 dirty


    R. M. Parrish, L. A. Burns, D. G. A. Smith, A. C. Simmonett,
    A. E. DePrince III, E. G. Hohenstein, U. Bozkaya, A. Yu. Sokolov,
    R. Di Remigio, R. M. Richard, J. F. Gonthier, A. M. James,
    H. R. McAlexander, A. Kumar, M. Saitow, X. Wang, B. P. Pritchard,
    P. Verma, H. F. Schaefer III, K. Patkowski, R. A. King, E. F. Valeev,
    F. A. Evangelista, J. M. Turney, T. D. Crawford, and C. D. Sherrill,
    J. Chem. Theory Comput. 13(7) pp 3185--3197 (2017).
    (doi: 10.1021/acs.jctc.7b00174)


                         Additional Contributions by
    P. Kraus, H. Kruse, M. H. Lechner, M. C. Schieber, R. A. Shaw,
    A. Alenaizan, R. Galvelis, Z. L. Glick, S. Lehtola, and J. P. Misiewicz

    -----------------------------------------------------------------------


    Psi4 started on: Monday, 08 June 2020 01:42PM

    Process ID: 25405
    Host:       n061
    PSIDATADIR: /opt/psi/4/master/share/psi4
    Memory:     500.0 MiB
    Threads:    4
    
  ==> Input File <==

--------------------------------------------------------------------------
set memory 40Gb

molecule {
    C   -1.174199517890   -0.774961658783   -0.000122119707
    H   -1.619191780690   -1.211086467183   -0.891051837007
    H   -1.619266333190   -1.211279077683    0.890674642893
    C   -1.174315833390    0.774780790217    0.000039360393
    H   -1.619438560890    1.213281968023    0.890963926720
    H   -1.619564647949    1.210696346863   -0.890756496668
    C    0.352734786005    0.922149480468    0.000132662260
    H    0.838453876955    1.892354869478    0.000284783474
    O    0.767438536859    0.000187973880   -1.027327527834
    C    0.353150272127   -0.922241879197   -0.000113936461
    H    0.839311910135   -1.892224872543   -0.000230105783
    O    0.767350326322   -0.000092768409    1.027382819726
}

set {
    e_convergence 10
    d_convergence 10
    freeze_core True
    basis_guess True
    cc_type conv
    maxiter 300
}

E = energy('mp2/heavy-aug-cc-pV(Q+d)Z')
psi4.print_out("\n========================OPTAVC-XTPL==========================\n\n")
psi4.print_out("MP2/QZ correlation energy {}\n".format(variable("MP2 CORRELATION ENERGY")))
psi4.print_out("SCF/QZ reference energy {}\n".format(variable("CURRENT REFERENCE ENERGY")))
psi4.print_out("\n\n=============================================================\n")

E = energy('mp2/heavy-aug-cc-pV(T+d)Z')
psi4.print_out("\n========================OPTAVC-XTPL==========================\n\n")
psi4.print_out("MP2/TZ correlation energy {}".format(variable("MP2 CORRELATION ENERGY")))
psi4.print_out("\n\n=============================================================\n")
--------------------------------------------------------------------------

Scratch directory: /tmp/

Scratch directory: /tmp/
    SCF Algorithm Type (re)set to DF.

*** tstart() called on n061
*** at Mon Jun  8 13:42:35 2020


  //>>>>>>>>>>>>>>>>>>>>>>>>>>>>>>>>>>>//
  //      Guess SCF, pcseg-0 Basis     //
  //<<<<<<<<<<<<<<<<<<<<<<<<<<<<<<<<<<<//

   => Loading Basis Set <=

    Name: PCSEG-0
    Role: ORBITAL
    Keyword: BASIS
    atoms 1, 4, 7, 10     entry C          line    71 file /opt/psi/4/master/share/psi4/basis/pcseg-0.gbs 
    atoms 2-3, 5-6, 8, 11 entry H          line    13 file /opt/psi/4/master/share/psi4/basis/pcseg-0.gbs 
    atoms 9, 12           entry O          line   103 file /opt/psi/4/master/share/psi4/basis/pcseg-0.gbs 


         ---------------------------------------------------------
                           SCF Castup computation                  
         ---------------------------------------------------------
                                   SCF
               by Justin Turney, Rob Parrish, Andy Simmonett
                          and Daniel G. A. Smith
                              RHF Reference
                        4 Threads,    500 MiB Core
         ---------------------------------------------------------

  ==> Geometry <==

    Molecular point group: c1
    Full point group: C1

    Geometry (in Angstrom), charge = 0, multiplicity = 1:

       Center              X                  Y                   Z               Mass       
    ------------   -----------------  -----------------  -----------------  -----------------
         C           -1.174199517890    -0.774961658783    -0.000122119707    12.000000000000
         H           -1.619191780690    -1.211086467183    -0.891051837007     1.007825032230
         H           -1.619266333190    -1.211279077683     0.890674642893     1.007825032230
         C           -1.174315833390     0.774780790217     0.000039360393    12.000000000000
         H           -1.619438560890     1.213281968023     0.890963926720     1.007825032230
         H           -1.619564647949     1.210696346863    -0.890756496668     1.007825032230
         C            0.352734786005     0.922149480468     0.000132662260    12.000000000000
         H            0.838453876955     1.892354869478     0.000284783474     1.007825032230
         O            0.767438536859     0.000187973880    -1.027327527834    15.994914619570
         C            0.353150272127    -0.922241879197    -0.000113936461    12.000000000000
         H            0.839311910135    -1.892224872543    -0.000230105783     1.007825032230
         O            0.767350326322    -0.000092768409     1.027382819726    15.994914619570

  Running in c1 symmetry.

  Rotational constants: A =      0.19851  B =      0.16229  C =      0.14676 [cm^-1]
  Rotational constants: A =   5951.27291  B =   4865.27725  C =   4399.66939 [MHz]
  Nuclear repulsion =  257.003796497869075

  Charge       = 0
  Multiplicity = 1
  Electrons    = 46
  Nalpha       = 23
  Nbeta        = 23

  ==> Algorithm <==

  SCF Algorithm Type is DF.
  DIIS enabled.
  MOM disabled.
  Fractional occupation disabled.
  Guess Type is SAD.
  Energy threshold   = 1.00e-10
  Density threshold  = 1.00e-10
  Integral threshold = 0.00e+00

  ==> Primary Basis <==

  Basis Set: PCSEG-0
    Blend: PCSEG-0
    Number of shells: 42
    Number of basis function: 66
    Number of Cartesian functions: 66
    Spherical Harmonics?: true
    Max angular momentum: 1

   => Loading Basis Set <=

    Name: (PCSEG-0 AUX)
    Role: JKFIT
    Keyword: DF_BASIS_SCF
    atoms 1, 4, 7, 10     entry C          line   198 file /opt/psi/4/master/share/psi4/basis/def2-universal-jkfit.gbs 
    atoms 2-3, 5-6, 8, 11 entry H          line    18 file /opt/psi/4/master/share/psi4/basis/def2-universal-jkfit.gbs 
    atoms 9, 12           entry O          line   318 file /opt/psi/4/master/share/psi4/basis/def2-universal-jkfit.gbs 

  ==> Integral Setup <==

  ==> DiskDFJK: Density-Fitted J/K Matrices <==

    J tasked:                  Yes
    K tasked:                  Yes
    wK tasked:                  No
    OpenMP threads:              4
    Integrals threads:           4
    Memory [MiB]:              375
    Algorithm:                Core
    Integral Cache:           NONE
    Schwarz Cutoff:          1E-12
    Fitting Condition:       1E-10

   => Auxiliary Basis Set <=

  Basis Set: (PCSEG-0 AUX)
    Blend: DEF2-UNIVERSAL-JKFIT
    Number of shells: 186
    Number of basis function: 562
    Number of Cartesian functions: 662
    Spherical Harmonics?: true
    Max angular momentum: 4

  Minimum eigenvalue in the overlap matrix is 1.2866273036E-03.
  Reciprocal condition number of the overlap matrix is 2.1252785910E-04.
    Using symmetric orthogonalization.

  ==> Pre-Iterations <==

  SCF Guess: Superposition of Atomic Densities via on-the-fly atomic UHF (no occupation information).

   -------------------------
    Irrep   Nso     Nmo    
   -------------------------
     A         66      66 
   -------------------------
    Total      66      66
   -------------------------

  ==> Iterations <==

                           Total Energy        Delta E     RMS |[F,P]|

   @DF-RHF iter SAD:  -303.69555535267580   -3.03696e+02   0.00000e+00 
   @DF-RHF iter   1:  -303.56576291856038    1.29792e-01   7.23926e-03 DIIS
   @DF-RHF iter   2:  -303.66478397867650   -9.90211e-02   3.96864e-03 DIIS
   @DF-RHF iter   3:  -303.69039402405122   -2.56100e-02   6.19679e-04 DIIS
   @DF-RHF iter   4:  -303.69157888430982   -1.18486e-03   1.96346e-04 DIIS
   @DF-RHF iter   5:  -303.69167455651700   -9.56722e-05   4.10626e-05 DIIS
   @DF-RHF iter   6:  -303.69168214733338   -7.59082e-06   8.38062e-06 DIIS
   @DF-RHF iter   7:  -303.69168255024459   -4.02911e-07   1.69030e-06 DIIS
   @DF-RHF iter   8:  -303.69168256438036   -1.41358e-08   5.42667e-07 DIIS
   @DF-RHF iter   9:  -303.69168256580326   -1.42290e-09   1.09324e-07 DIIS
   @DF-RHF iter  10:  -303.69168256587920   -7.59428e-11   1.85784e-08 DIIS
   @DF-RHF iter  11:  -303.69168256588148   -2.27374e-12   2.80019e-09 DIIS
   @DF-RHF iter  12:  -303.69168256588137    1.13687e-13   8.17078e-10 DIIS
   @DF-RHF iter  13:  -303.69168256588176   -3.97904e-13   2.93688e-10 DIIS
   @DF-RHF iter  14:  -303.69168256588125    5.11591e-13   5.61322e-11 DIIS
  Energy and wave function converged.


  ==> Post-Iterations <==

    Orbital Energies [Eh]
    ---------------------

    Doubly Occupied:                                                      

       1A    -20.584530     2A    -20.584466     3A    -11.369632  
       4A    -11.369602     5A    -11.256218     6A    -11.255816  
       7A     -1.537594     8A     -1.312993     9A     -1.091746  
      10A     -1.008909    11A     -0.821892    12A     -0.790138  
      13A     -0.768295    14A     -0.680685    15A     -0.662826  
      16A     -0.658501    17A     -0.552304    18A     -0.534579  
      19A     -0.527361    20A     -0.524488    21A     -0.519384  
      22A     -0.467032    23A     -0.443239  

    Virtual:                                                              

      24A      0.203057    25A      0.231160    26A      0.236055  
      27A      0.242180    28A      0.253170    29A      0.267345  
      30A      0.314340    31A      0.350255    32A      0.350953  
      33A      0.382146    34A      0.406818    35A      0.464626  
      36A      0.570287    37A      0.796438    38A      0.807880  
      39A      0.820501    40A      0.925716    41A      0.932837  
      42A      0.946946    43A      0.949914    44A      1.003237  
      45A      1.004983    46A      1.030105    47A      1.060583  
      48A      1.072101    49A      1.134259    50A      1.149034  
      51A      1.170394    52A      1.173628    53A      1.210895  
      54A      1.237781    55A      1.424660    56A      1.454479  
      57A      1.482491    58A      1.522017    59A      1.690944  
      60A      1.705473    61A      1.927896    62A      1.950923  
      63A      2.140042    64A      2.299064    65A      2.374955  
      66A      2.441135  

    Final Occupation by Irrep:
              A 
    DOCC [    23 ]

  @DF-RHF Final Energy:  -303.69168256588125

   => Energetics <=

    Nuclear Repulsion Energy =            257.0037964978690752
    One-Electron Energy =                -922.7465011928115928
    Two-Electron Energy =                 362.0510221290612662
    Total Energy =                       -303.6916825658812513

Computation Completed

  //>>>>>>>>>>>>>>>>>>>>>>>>>>>>>>>>>>>//
  //                SCF                //
  //<<<<<<<<<<<<<<<<<<<<<<<<<<<<<<<<<<<//

   => Loading Basis Set <=

    Name: HEAVY-AUG-CC-PV(Q+D)Z
    Role: ORBITAL
    Keyword: BASIS
    atoms 1, 4, 7, 10     entry C          line   333 file /opt/psi/4/master/share/psi4/basis/heavy-aug-cc-pv_qpd_z.gbs 
    atoms 2-3, 5-6, 8, 11 entry H          line    86 file /opt/psi/4/master/share/psi4/basis/heavy-aug-cc-pv_qpd_z.gbs 
    atoms 9, 12           entry O          line   453 file /opt/psi/4/master/share/psi4/basis/heavy-aug-cc-pv_qpd_z.gbs 


         ---------------------------------------------------------
                                   SCF
               by Justin Turney, Rob Parrish, Andy Simmonett
                          and Daniel G. A. Smith
                              RHF Reference
                        4 Threads,    500 MiB Core
         ---------------------------------------------------------

  ==> Geometry <==

    Molecular point group: c1
    Full point group: C1

    Geometry (in Angstrom), charge = 0, multiplicity = 1:

       Center              X                  Y                   Z               Mass       
    ------------   -----------------  -----------------  -----------------  -----------------
         C           -1.174199517890    -0.774961658783    -0.000122119707    12.000000000000
         H           -1.619191780690    -1.211086467183    -0.891051837007     1.007825032230
         H           -1.619266333190    -1.211279077683     0.890674642893     1.007825032230
         C           -1.174315833390     0.774780790217     0.000039360393    12.000000000000
         H           -1.619438560890     1.213281968023     0.890963926720     1.007825032230
         H           -1.619564647949     1.210696346863    -0.890756496668     1.007825032230
         C            0.352734786005     0.922149480468     0.000132662260    12.000000000000
         H            0.838453876955     1.892354869478     0.000284783474     1.007825032230
         O            0.767438536859     0.000187973880    -1.027327527834    15.994914619570
         C            0.353150272127    -0.922241879197    -0.000113936461    12.000000000000
         H            0.839311910135    -1.892224872543    -0.000230105783     1.007825032230
         O            0.767350326322    -0.000092768409     1.027382819726    15.994914619570

  Running in c1 symmetry.

  Rotational constants: A =      0.19851  B =      0.16229  C =      0.14676 [cm^-1]
  Rotational constants: A =   5951.27291  B =   4865.27725  C =   4399.66939 [MHz]
  Nuclear repulsion =  257.003796497869075

  Charge       = 0
  Multiplicity = 1
  Electrons    = 46
  Nalpha       = 23
  Nbeta        = 23

  ==> Algorithm <==

  SCF Algorithm Type is DF.
  DIIS enabled.
  MOM disabled.
  Fractional occupation disabled.
  Guess Type is SAD.
  Energy threshold   = 1.00e-10
  Density threshold  = 1.00e-10
  Integral threshold = 0.00e+00

  ==> Primary Basis <==

  Basis Set: HEAVY-AUG-CC-PV(Q+D)Z
    Blend: HEAVY-AUG-CC-PV(Q+D)Z
    Number of shells: 180
    Number of basis function: 660
    Number of Cartesian functions: 840
    Spherical Harmonics?: true
    Max angular momentum: 4

   => Loading Basis Set <=

    Name: (HEAVY-AUG-CC-PV(Q+D)Z AUX)
    Role: JKFIT
    Keyword: DF_BASIS_SCF
    atoms 1, 4, 7, 10     entry C          line   214 file /opt/psi/4/master/share/psi4/basis/heavy-aug-cc-pvqz-jkfit.gbs 
    atoms 2-3, 5-6, 8, 11 entry H          line   116 file /opt/psi/4/master/share/psi4/basis/heavy-aug-cc-pvqz-jkfit.gbs 
    atoms 9, 12           entry O          line   354 file /opt/psi/4/master/share/psi4/basis/heavy-aug-cc-pvqz-jkfit.gbs 


  Computing basis projection from PCSEG-0 to HEAVY-AUG-CC-PV(Q+D)Z

  ==> Integral Setup <==

  ==> DiskDFJK: Density-Fitted J/K Matrices <==

    J tasked:                  Yes
    K tasked:                  Yes
    wK tasked:                  No
    OpenMP threads:              4
    Integrals threads:           4
    Memory [MiB]:              375
    Algorithm:                Disk
    Integral Cache:           NONE
    Schwarz Cutoff:          1E-12
    Fitting Condition:       1E-10

   => Auxiliary Basis Set <=

  Basis Set: (HEAVY-AUG-CC-PV(Q+D)Z AUX)
    Blend: HEAVY-AUG-CC-PVQZ-JKFIT
    Number of shells: 282
    Number of basis function: 1158
    Number of Cartesian functions: 1584
    Spherical Harmonics?: true
    Max angular momentum: 5

  Minimum eigenvalue in the overlap matrix is 1.0921744972E-06.
  Reciprocal condition number of the overlap matrix is 7.0040415658E-08.
    Using symmetric orthogonalization.

  ==> Pre-Iterations <==

  SCF Guess: Orbitals guess was supplied from a previous computation.

   -------------------------
    Irrep   Nso     Nmo    
   -------------------------
     A        660     660 
   -------------------------
    Total     660     660
   -------------------------

  ==> Iterations <==

                           Total Energy        Delta E     RMS |[F,P]|

   @DF-RHF iter   0:  -304.22238037445652   -3.04222e+02   4.48094e-03 
   @DF-RHF iter   1:  -304.73371127222981   -5.11331e-01   3.36606e-04 DIIS
   @DF-RHF iter   2:  -304.74974354983055   -1.60323e-02   1.53697e-04 DIIS
   @DF-RHF iter   3:  -304.75361736744321   -3.87382e-03   2.81238e-05 DIIS
   @DF-RHF iter   4:  -304.75389445487320   -2.77087e-04   8.46007e-06 DIIS
   @DF-RHF iter   5:  -304.75391674988850   -2.22950e-05   3.57803e-06 DIIS
   @DF-RHF iter   6:  -304.75392055730333   -3.80741e-06   8.40726e-07 DIIS
   @DF-RHF iter   7:  -304.75392086614488   -3.08842e-07   1.79499e-07 DIIS
   @DF-RHF iter   8:  -304.75392088120611   -1.50612e-08   4.58518e-08 DIIS
   @DF-RHF iter   9:  -304.75392088229898   -1.09287e-09   1.49402e-08 DIIS
   @DF-RHF iter  10:  -304.75392088238755   -8.85620e-11   3.82605e-09 DIIS
   @DF-RHF iter  11:  -304.75392088239437   -6.82121e-12   9.81444e-10 DIIS
   @DF-RHF iter  12:  -304.75392088239590   -1.53477e-12   2.84564e-10 DIIS
   @DF-RHF iter  13:  -304.75392088239477    1.13687e-12   6.10035e-11 DIIS
  Energy and wave function converged.


  ==> Post-Iterations <==

    Orbital Energies [Eh]
    ---------------------

    Doubly Occupied:                                                      

       1A    -20.565190     2A    -20.565151     3A    -11.348561  
       4A    -11.348518     5A    -11.236691     6A    -11.236121  
       7A     -1.490871     8A     -1.292243     9A     -1.067376  
      10A     -0.987924    11A     -0.810273    12A     -0.789487  
      13A     -0.746621    14A     -0.672466    15A     -0.651324  
      16A     -0.646425    17A     -0.534306    18A     -0.524552  
      19A     -0.519619    20A     -0.512136    21A     -0.510009  
      22A     -0.459734    23A     -0.433687  

    Virtual:                                                              

      24A      0.041410    25A      0.042853    26A      0.050666  
      27A      0.062628    28A      0.063924    29A      0.079821  
      30A      0.080141    31A      0.083440    32A      0.101430  
      33A      0.110249    34A      0.111677    35A      0.112244  
      36A      0.139345    37A      0.151650    38A      0.166307  
      39A      0.171437    40A      0.178453    41A      0.178823  
      42A      0.188835    43A      0.188976    44A      0.199063  
      45A      0.207286    46A      0.226479    47A      0.227209  
      48A      0.229636    49A      0.257263    50A      0.260928  
      51A      0.270272    52A      0.270855    53A      0.271813  
      54A      0.286581    55A      0.288161    56A      0.291025  
      57A      0.301095    58A      0.316663    59A      0.320022  
      60A      0.325063    61A      0.333732    62A      0.337643  
      63A      0.355691    64A      0.358150    65A      0.369554  
      66A      0.380977    67A      0.388146    68A      0.389567  
      69A      0.391557    70A      0.391699    71A      0.395734  
      72A      0.398868    73A      0.412364    74A      0.420391  
      75A      0.420658    76A      0.440276    77A      0.453044  
      78A      0.456210    79A      0.462765    80A      0.494963  
      81A      0.515271    82A      0.518834    83A      0.522825  
      84A      0.528478    85A      0.550774    86A      0.571898  
      87A      0.574288    88A      0.585326    89A      0.589246  
      90A      0.598558    91A      0.600078    92A      0.613233  
      93A      0.629138    94A      0.641300    95A      0.653797  
      96A      0.660009    97A      0.684936    98A      0.688967  
      99A      0.695793   100A      0.704776   101A      0.716144  
     102A      0.716672   103A      0.732387   104A      0.743498  
     105A      0.757803   106A      0.764569   107A      0.789990  
     108A      0.790282   109A      0.794262   110A      0.795432  
     111A      0.827271   112A      0.832112   113A      0.833127  
     114A      0.849273   115A      0.860799   116A      0.875686  
     117A      0.884466   118A      0.896996   119A      0.920058  
     120A      0.938765   121A      0.947558   122A      0.957857  
     123A      0.961118   124A      0.988460   125A      1.002219  
     126A      1.010161   127A      1.011321   128A      1.015961  
     129A      1.034022   130A      1.035434   131A      1.046733  
     132A      1.062546   133A      1.070036   134A      1.075561  
     135A      1.096469   136A      1.114741   137A      1.128877  
     138A      1.140266   139A      1.155024   140A      1.159120  
     141A      1.160286   142A      1.166443   143A      1.168829  
     144A      1.175962   145A      1.191275   146A      1.198081  
     147A      1.208924   148A      1.222030   149A      1.229423  
     150A      1.234517   151A      1.238499   152A      1.239486  
     153A      1.245022   154A      1.276430   155A      1.276859  
     156A      1.287860   157A      1.288123   158A      1.306456  
     159A      1.314723   160A      1.327780   161A      1.370832  
     162A      1.371165   163A      1.407998   164A      1.409109  
     165A      1.437015   166A      1.442706   167A      1.458911  
     168A      1.469732   169A      1.474871   170A      1.485569  
     171A      1.491137   172A      1.508406   173A      1.525297  
     174A      1.534849   175A      1.543969   176A      1.593199  
     177A      1.594344   178A      1.618329   179A      1.620269  
     180A      1.625507   181A      1.626387   182A      1.647935  
     183A      1.682824   184A      1.687600   185A      1.699175  
     186A      1.723604   187A      1.728462   188A      1.730996  
     189A      1.757381   190A      1.775837   191A      1.776298  
     192A      1.814957   193A      1.865815   194A      1.870723  
     195A      1.885929   196A      1.900947   197A      1.911925  
     198A      1.923922   199A      1.960902   200A      1.968372  
     201A      1.996898   202A      1.997077   203A      2.018100  
     204A      2.026380   205A      2.026582   206A      2.028350  
     207A      2.033252   208A      2.039772   209A      2.044087  
     210A      2.106770   211A      2.116331   212A      2.125176  
     213A      2.141828   214A      2.143513   215A      2.174060  
     216A      2.187994   217A      2.188170   218A      2.209195  
     219A      2.249218   220A      2.258665   221A      2.265893  
     222A      2.293672   223A      2.293817   224A      2.306510  
     225A      2.335726   226A      2.341422   227A      2.359084  
     228A      2.363362   229A      2.366806   230A      2.373302  
     231A      2.389266   232A      2.395683   233A      2.403108  
     234A      2.418933   235A      2.441275   236A      2.442580  
     237A      2.462751   238A      2.485359   239A      2.492362  
     240A      2.517357   241A      2.526153   242A      2.533161  
     243A      2.548421   244A      2.559967   245A      2.584273  
     246A      2.587460   247A      2.621228   248A      2.626363  
     249A      2.633376   250A      2.644939   251A      2.660581  
     252A      2.682374   253A      2.705851   254A      2.714188  
     255A      2.729149   256A      2.730885   257A      2.751268  
     258A      2.763598   259A      2.763889   260A      2.801423  
     261A      2.803175   262A      2.811989   263A      2.831894  
     264A      2.858246   265A      2.866362   266A      2.918891  
     267A      2.935251   268A      2.940940   269A      2.966580  
     270A      2.974762   271A      2.986773   272A      2.986993  
     273A      3.009289   274A      3.031525   275A      3.041198  
     276A      3.048577   277A      3.074742   278A      3.075951  
     279A      3.084108   280A      3.104137   281A      3.109628  
     282A      3.136625   283A      3.142974   284A      3.153352  
     285A      3.169811   286A      3.187587   287A      3.222872  
     288A      3.248005   289A      3.259514   290A      3.268125  
     291A      3.288074   292A      3.292768   293A      3.320232  
     294A      3.362774   295A      3.366862   296A      3.394723  
     297A      3.397890   298A      3.402617   299A      3.431193  
     300A      3.452663   301A      3.464641   302A      3.474338  
     303A      3.501637   304A      3.523849   305A      3.535548  
     306A      3.549005   307A      3.571774   308A      3.598166  
     309A      3.609669   310A      3.618382   311A      3.635990  
     312A      3.661384   313A      3.690598   314A      3.706592  
     315A      3.716418   316A      3.746839   317A      3.752711  
     318A      3.757232   319A      3.805242   320A      3.834546  
     321A      3.843143   322A      3.843898   323A      3.872902  
     324A      3.908131   325A      3.909305   326A      3.917385  
     327A      3.950276   328A      3.962322   329A      3.982162  
     330A      4.039699   331A      4.041285   332A      4.048223  
     333A      4.060640   334A      4.084999   335A      4.098857  
     336A      4.119848   337A      4.134588   338A      4.156913  
     339A      4.173061   340A      4.202548   341A      4.205916  
     342A      4.217798   343A      4.238118   344A      4.245457  
     345A      4.273368   346A      4.292597   347A      4.316979  
     348A      4.331449   349A      4.336271   350A      4.357098  
     351A      4.406178   352A      4.426956   353A      4.439594  
     354A      4.451903   355A      4.459852   356A      4.489176  
     357A      4.497555   358A      4.511887   359A      4.517449  
     360A      4.541037   361A      4.568946   362A      4.593980  
     363A      4.627505   364A      4.652668   365A      4.669515  
     366A      4.691446   367A      4.696616   368A      4.698277  
     369A      4.718411   370A      4.736636   371A      4.749755  
     372A      4.760919   373A      4.787772   374A      4.823603  
     375A      4.823751   376A      4.826213   377A      4.843985  
     378A      4.846522   379A      4.900947   380A      4.942404  
     381A      4.976619   382A      4.999841   383A      5.000423  
     384A      5.021182   385A      5.058531   386A      5.122511  
     387A      5.154795   388A      5.163991   389A      5.182631  
     390A      5.237068   391A      5.244803   392A      5.253114  
     393A      5.277145   394A      5.289768   395A      5.304725  
     396A      5.341942   397A      5.357704   398A      5.374610  
     399A      5.407514   400A      5.488811   401A      5.512770  
     402A      5.555336   403A      5.582491   404A      5.627069  
     405A      5.646804   406A      5.649504   407A      5.669289  
     408A      5.782265   409A      5.821811   410A      5.828707  
     411A      5.837576   412A      5.897824   413A      5.972870  
     414A      6.030778   415A      6.102295   416A      6.137747  
     417A      6.193017   418A      6.214446   419A      6.227685  
     420A      6.236579   421A      6.292282   422A      6.334867  
     423A      6.337914   424A      6.345770   425A      6.366656  
     426A      6.398003   427A      6.417422   428A      6.458835  
     429A      6.490210   430A      6.495398   431A      6.511039  
     432A      6.520502   433A      6.530681   434A      6.576691  
     435A      6.586197   436A      6.611780   437A      6.638436  
     438A      6.643424   439A      6.656371   440A      6.679641  
     441A      6.699898   442A      6.700033   443A      6.716985  
     444A      6.748502   445A      6.765396   446A      6.782341  
     447A      6.814256   448A      6.819546   449A      6.855308  
     450A      6.885203   451A      6.912580   452A      6.914919  
     453A      6.921328   454A      6.925537   455A      6.937837  
     456A      6.976682   457A      6.989112   458A      7.010310  
     459A      7.039250   460A      7.092329   461A      7.101149  
     462A      7.104227   463A      7.134537   464A      7.152566  
     465A      7.178888   466A      7.193479   467A      7.195402  
     468A      7.218695   469A      7.222450   470A      7.248725  
     471A      7.276398   472A      7.304165   473A      7.352316  
     474A      7.359485   475A      7.366416   476A      7.417565  
     477A      7.429955   478A      7.436770   479A      7.469281  
     480A      7.528701   481A      7.541037   482A      7.583935  
     483A      7.599334   484A      7.604377   485A      7.635735  
     486A      7.707081   487A      7.730197   488A      7.741713  
     489A      7.751041   490A      7.782704   491A      7.802413  
     492A      7.832895   493A      7.840906   494A      7.842137  
     495A      7.917479   496A      7.936429   497A      7.942883  
     498A      7.986387   499A      7.995487   500A      8.014190  
     501A      8.014783   502A      8.042256   503A      8.083611  
     504A      8.105192   505A      8.145184   506A      8.154709  
     507A      8.190843   508A      8.192961   509A      8.321992  
     510A      8.325996   511A      8.334933   512A      8.351584  
     513A      8.378021   514A      8.407979   515A      8.412263  
     516A      8.478039   517A      8.495861   518A      8.497278  
     519A      8.531760   520A      8.551533   521A      8.557676  
     522A      8.586184   523A      8.608884   524A      8.611207  
     525A      8.649091   526A      8.686722   527A      8.706736  
     528A      8.715904   529A      8.761963   530A      8.813776  
     531A      8.825610   532A      8.837684   533A      8.840721  
     534A      8.841037   535A      8.879505   536A      8.899226  
     537A      8.903704   538A      8.936435   539A      8.957210  
     540A      8.993268   541A      9.015963   542A      9.027134  
     543A      9.033725   544A      9.048037   545A      9.055482  
     546A      9.084912   547A      9.108977   548A      9.116836  
     549A      9.170954   550A      9.175970   551A      9.188989  
     552A      9.233621   553A      9.248572   554A      9.314794  
     555A      9.343083   556A      9.350014   557A      9.350913  
     558A      9.365732   559A      9.399844   560A      9.452888  
     561A      9.497431   562A      9.513039   563A      9.525152  
     564A      9.556212   565A      9.648386   566A      9.657826  
     567A      9.726311   568A      9.754977   569A      9.768714  
     570A      9.790381   571A      9.833642   572A      9.898470  
     573A      9.919202   574A      9.930499   575A      9.958907  
     576A     10.067507   577A     10.116257   578A     10.232180  
     579A     10.241505   580A     10.254723   581A     10.293357  
     582A     10.416273   583A     10.477144   584A     10.506544  
     585A     10.507314   586A     10.592829   587A     10.626631  
     588A     10.642895   589A     10.779700   590A     10.792689  
     591A     10.821609   592A     10.825275   593A     10.969497  
     594A     11.000372   595A     11.062780   596A     11.071497  
     597A     11.101667   598A     11.105299   599A     11.130727  
     600A     11.151956   601A     11.162275   602A     11.209844  
     603A     11.225426   604A     11.251450   605A     11.334204  
     606A     11.383428   607A     11.450521   608A     11.454954  
     609A     11.494450   610A     11.498268   611A     11.508270  
     612A     11.542468   613A     11.619402   614A     11.644626  
     615A     11.721979   616A     11.813774   617A     11.819986  
     618A     11.847573   619A     11.885636   620A     11.908030  
     621A     12.198697   622A     12.253614   623A     12.316573  
     624A     12.378642   625A     12.640950   626A     12.651161  
     627A     12.824919   628A     12.870055   629A     12.964619  
     630A     13.028221   631A     13.075724   632A     13.076139  
     633A     13.182022   634A     13.237224   635A     13.253732  
     636A     13.353972   637A     13.357659   638A     13.385921  
     639A     13.420914   640A     13.512424   641A     13.523260  
     642A     13.532818   643A     13.717853   644A     13.736634  
     645A     13.789227   646A     13.813512   647A     13.846822  
     648A     13.908418   649A     13.968964   650A     13.979467  
     651A     14.123371   652A     14.155169   653A     14.690446  
     654A     14.884034   655A     27.255470   656A     27.849046  
     657A     28.041379   658A     28.607447   659A     44.796965  
     660A     45.696041  

    Final Occupation by Irrep:
              A 
    DOCC [    23 ]

  @DF-RHF Final Energy:  -304.75392088239477

   => Energetics <=

    Nuclear Repulsion Energy =            257.0037964978690752
    One-Electron Energy =                -925.6168664217382229
    Two-Electron Energy =                 363.8591490414743816
    Total Energy =                       -304.7539208823947661

Computation Completed


Properties will be evaluated at   0.000000,   0.000000,   0.000000 [a0]

Properties computed using the SCF density matrix

  Nuclear Dipole Moment: [e a0]
     X:    -4.4922      Y:     0.0016      Z:    -0.0001

  Electronic Dipole Moment: [e a0]
     X:     3.7206      Y:    -0.0018      Z:    -0.0002

  Dipole Moment: [e a0]
     X:    -0.7716      Y:    -0.0002      Z:    -0.0003     Total:     0.7716

  Dipole Moment: [D]
     X:    -1.9612      Y:    -0.0004      Z:    -0.0007     Total:     1.9612


*** tstop() called on n061 at Mon Jun  8 13:43:13 2020
Module time:
	user time   =     136.34 seconds =       2.27 minutes
	system time =       6.32 seconds =       0.11 minutes
	total time  =         38 seconds =       0.63 minutes
Total time:
	user time   =     136.34 seconds =       2.27 minutes
	system time =       6.32 seconds =       0.11 minutes
	total time  =         38 seconds =       0.63 minutes

*** tstart() called on n061
*** at Mon Jun  8 13:43:13 2020


  //>>>>>>>>>>>>>>>>>>>>>>>>>>>>>>>>>>>//
  //               DFMP2               //
  //<<<<<<<<<<<<<<<<<<<<<<<<<<<<<<<<<<<//

   => Loading Basis Set <=

    Name: (HEAVY-AUG-CC-PV(Q+D)Z AUX)
    Role: RIFIT
    Keyword: DF_BASIS_MP2
    atoms 1, 4, 7, 10     entry C          line   180 file /opt/psi/4/master/share/psi4/basis/heavy-aug-cc-pvqz-ri.gbs 
    atoms 2-3, 5-6, 8, 11 entry H          line    44 file /opt/psi/4/master/share/psi4/basis/heavy-aug-cc-pvqz-ri.gbs 
    atoms 9, 12           entry O          line   328 file /opt/psi/4/master/share/psi4/basis/heavy-aug-cc-pvqz-ri.gbs 

	 --------------------------------------------------------
	                          DF-MP2                         
	      2nd-Order Density-Fitted Moller-Plesset Theory     
	              RMP2 Wavefunction,   4 Threads             
	                                                         
	        Rob Parrish, Justin Turney, Andy Simmonett,      
	           Ed Hohenstein, and C. David Sherrill          
	 --------------------------------------------------------

   => Auxiliary Basis Set <=

  Basis Set: (HEAVY-AUG-CC-PV(Q+D)Z AUX)
    Blend: HEAVY-AUG-CC-PVQZ-RI
    Number of shells: 306
    Number of basis function: 1338
    Number of Cartesian functions: 1842
    Spherical Harmonics?: true
    Max angular momentum: 5

	 --------------------------------------------------------
	                 NBF =   660, NAUX =  1338
	 --------------------------------------------------------
	   CLASS    FOCC     OCC    AOCC    AVIR     VIR    FVIR
	   PAIRS       6      23      17     637     637       0
	 --------------------------------------------------------

	-----------------------------------------------------------
	 ==================> DF-MP2 Energies <==================== 
	-----------------------------------------------------------
	 Reference Energy          =    -304.7539208823947661 [Eh]
	 Singles Energy            =      -0.0000000000000000 [Eh]
	 Same-Spin Energy          =      -0.2941249913598182 [Eh]
	 Opposite-Spin Energy      =      -0.9238459401205107 [Eh]
	 Correlation Energy        =      -1.2179709314803289 [Eh]
	 Total Energy              =    -305.9718918138751178 [Eh]
	-----------------------------------------------------------
	 ================> DF-SCS-MP2 Energies <================== 
	-----------------------------------------------------------
	 SCS Same-Spin Scale       =       0.3333333333333333 [-]
	 SCS Opposite-Spin Scale   =       1.2000000000000000 [-]
	 SCS Same-Spin Energy      =      -0.0980416637866061 [Eh]
	 SCS Opposite-Spin Energy  =      -1.1086151281446128 [Eh]
	 SCS Correlation Energy    =      -1.2066567919312190 [Eh]
	 SCS Total Energy          =    -305.9605776743259753 [Eh]
	-----------------------------------------------------------


*** tstop() called on n061 at Mon Jun  8 13:43:20 2020
Module time:
	user time   =      28.54 seconds =       0.48 minutes
	system time =       0.38 seconds =       0.01 minutes
	total time  =          7 seconds =       0.12 minutes
Total time:
	user time   =     164.89 seconds =       2.75 minutes
	system time =       6.70 seconds =       0.11 minutes
	total time  =         45 seconds =       0.75 minutes

========================OPTAVC-XTPL==========================

MP2/QZ correlation energy -1.2179709314803289
SCF/QZ reference energy -304.75392088239477


=============================================================

Scratch directory: /tmp/

Scratch directory: /tmp/
    SCF Algorithm Type (re)set to DF.

*** tstart() called on n061
*** at Mon Jun  8 13:43:21 2020


  //>>>>>>>>>>>>>>>>>>>>>>>>>>>>>>>>>>>//
  //      Guess SCF, pcseg-0 Basis     //
  //<<<<<<<<<<<<<<<<<<<<<<<<<<<<<<<<<<<//

   => Loading Basis Set <=

    Name: PCSEG-0
    Role: ORBITAL
    Keyword: BASIS
    atoms 1, 4, 7, 10     entry C          line    71 file /opt/psi/4/master/share/psi4/basis/pcseg-0.gbs 
    atoms 2-3, 5-6, 8, 11 entry H          line    13 file /opt/psi/4/master/share/psi4/basis/pcseg-0.gbs 
    atoms 9, 12           entry O          line   103 file /opt/psi/4/master/share/psi4/basis/pcseg-0.gbs 


         ---------------------------------------------------------
                           SCF Castup computation                  
         ---------------------------------------------------------
                                   SCF
               by Justin Turney, Rob Parrish, Andy Simmonett
                          and Daniel G. A. Smith
                              RHF Reference
                        4 Threads,    500 MiB Core
         ---------------------------------------------------------

  ==> Geometry <==

    Molecular point group: c1
    Full point group: C1

    Geometry (in Angstrom), charge = 0, multiplicity = 1:

       Center              X                  Y                   Z               Mass       
    ------------   -----------------  -----------------  -----------------  -----------------
         C           -1.174199517890    -0.774961658783    -0.000122119707    12.000000000000
         H           -1.619191780690    -1.211086467183    -0.891051837007     1.007825032230
         H           -1.619266333190    -1.211279077683     0.890674642893     1.007825032230
         C           -1.174315833390     0.774780790217     0.000039360393    12.000000000000
         H           -1.619438560890     1.213281968023     0.890963926720     1.007825032230
         H           -1.619564647949     1.210696346863    -0.890756496668     1.007825032230
         C            0.352734786005     0.922149480468     0.000132662260    12.000000000000
         H            0.838453876955     1.892354869478     0.000284783474     1.007825032230
         O            0.767438536859     0.000187973880    -1.027327527834    15.994914619570
         C            0.353150272127    -0.922241879197    -0.000113936461    12.000000000000
         H            0.839311910135    -1.892224872543    -0.000230105783     1.007825032230
         O            0.767350326322    -0.000092768409     1.027382819726    15.994914619570

  Running in c1 symmetry.

  Rotational constants: A =      0.19851  B =      0.16229  C =      0.14676 [cm^-1]
  Rotational constants: A =   5951.27291  B =   4865.27725  C =   4399.66939 [MHz]
  Nuclear repulsion =  257.003796497869075

  Charge       = 0
  Multiplicity = 1
  Electrons    = 46
  Nalpha       = 23
  Nbeta        = 23

  ==> Algorithm <==

  SCF Algorithm Type is DF.
  DIIS enabled.
  MOM disabled.
  Fractional occupation disabled.
  Guess Type is SAD.
  Energy threshold   = 1.00e-10
  Density threshold  = 1.00e-10
  Integral threshold = 0.00e+00

  ==> Primary Basis <==

  Basis Set: PCSEG-0
    Blend: PCSEG-0
    Number of shells: 42
    Number of basis function: 66
    Number of Cartesian functions: 66
    Spherical Harmonics?: true
    Max angular momentum: 1

   => Loading Basis Set <=

    Name: (PCSEG-0 AUX)
    Role: JKFIT
    Keyword: DF_BASIS_SCF
    atoms 1, 4, 7, 10     entry C          line   198 file /opt/psi/4/master/share/psi4/basis/def2-universal-jkfit.gbs 
    atoms 2-3, 5-6, 8, 11 entry H          line    18 file /opt/psi/4/master/share/psi4/basis/def2-universal-jkfit.gbs 
    atoms 9, 12           entry O          line   318 file /opt/psi/4/master/share/psi4/basis/def2-universal-jkfit.gbs 

  ==> Integral Setup <==

  ==> DiskDFJK: Density-Fitted J/K Matrices <==

    J tasked:                  Yes
    K tasked:                  Yes
    wK tasked:                  No
    OpenMP threads:              4
    Integrals threads:           4
    Memory [MiB]:              375
    Algorithm:                Core
    Integral Cache:           NONE
    Schwarz Cutoff:          1E-12
    Fitting Condition:       1E-10

   => Auxiliary Basis Set <=

  Basis Set: (PCSEG-0 AUX)
    Blend: DEF2-UNIVERSAL-JKFIT
    Number of shells: 186
    Number of basis function: 562
    Number of Cartesian functions: 662
    Spherical Harmonics?: true
    Max angular momentum: 4

  Minimum eigenvalue in the overlap matrix is 1.2866273036E-03.
  Reciprocal condition number of the overlap matrix is 2.1252785910E-04.
    Using symmetric orthogonalization.

  ==> Pre-Iterations <==

  SCF Guess: Superposition of Atomic Densities via on-the-fly atomic UHF (no occupation information).

   -------------------------
    Irrep   Nso     Nmo    
   -------------------------
     A         66      66 
   -------------------------
    Total      66      66
   -------------------------

  ==> Iterations <==

                           Total Energy        Delta E     RMS |[F,P]|

   @DF-RHF iter SAD:  -303.69555535254534   -3.03696e+02   0.00000e+00 
   @DF-RHF iter   1:  -303.56576291844044    1.29792e-01   7.23926e-03 DIIS
   @DF-RHF iter   2:  -303.66478397855451   -9.90211e-02   3.96864e-03 DIIS
   @DF-RHF iter   3:  -303.69039402392627   -2.56100e-02   6.19679e-04 DIIS
   @DF-RHF iter   4:  -303.69157888418471   -1.18486e-03   1.96346e-04 DIIS
   @DF-RHF iter   5:  -303.69167455639206   -9.56722e-05   4.10626e-05 DIIS
   @DF-RHF iter   6:  -303.69168214720861   -7.59082e-06   8.38062e-06 DIIS
   @DF-RHF iter   7:  -303.69168255011994   -4.02911e-07   1.69030e-06 DIIS
   @DF-RHF iter   8:  -303.69168256425559   -1.41357e-08   5.42667e-07 DIIS
   @DF-RHF iter   9:  -303.69168256567798   -1.42239e-09   1.09324e-07 DIIS
   @DF-RHF iter  10:  -303.69168256575449   -7.65112e-11   1.85784e-08 DIIS
   @DF-RHF iter  11:  -303.69168256575688   -2.38742e-12   2.80019e-09 DIIS
   @DF-RHF iter  12:  -303.69168256575625    6.25278e-13   8.17078e-10 DIIS
   @DF-RHF iter  13:  -303.69168256575654   -2.84217e-13   2.93687e-10 DIIS
   @DF-RHF iter  14:  -303.69168256575642    1.13687e-13   5.61322e-11 DIIS
  Energy and wave function converged.


  ==> Post-Iterations <==

    Orbital Energies [Eh]
    ---------------------

    Doubly Occupied:                                                      

       1A    -20.584530     2A    -20.584466     3A    -11.369632  
       4A    -11.369602     5A    -11.256218     6A    -11.255816  
       7A     -1.537594     8A     -1.312993     9A     -1.091746  
      10A     -1.008909    11A     -0.821892    12A     -0.790138  
      13A     -0.768295    14A     -0.680685    15A     -0.662826  
      16A     -0.658501    17A     -0.552304    18A     -0.534579  
      19A     -0.527361    20A     -0.524488    21A     -0.519384  
      22A     -0.467032    23A     -0.443239  

    Virtual:                                                              

      24A      0.203057    25A      0.231160    26A      0.236055  
      27A      0.242180    28A      0.253170    29A      0.267345  
      30A      0.314340    31A      0.350255    32A      0.350953  
      33A      0.382146    34A      0.406818    35A      0.464626  
      36A      0.570287    37A      0.796438    38A      0.807880  
      39A      0.820501    40A      0.925716    41A      0.932837  
      42A      0.946946    43A      0.949914    44A      1.003237  
      45A      1.004983    46A      1.030105    47A      1.060583  
      48A      1.072101    49A      1.134259    50A      1.149034  
      51A      1.170394    52A      1.173628    53A      1.210895  
      54A      1.237781    55A      1.424660    56A      1.454479  
      57A      1.482491    58A      1.522017    59A      1.690944  
      60A      1.705473    61A      1.927896    62A      1.950923  
      63A      2.140042    64A      2.299064    65A      2.374955  
      66A      2.441135  

    Final Occupation by Irrep:
              A 
    DOCC [    23 ]

  @DF-RHF Final Energy:  -303.69168256575642

   => Energetics <=

    Nuclear Repulsion Energy =            257.0037964978690752
    One-Electron Energy =                -922.7465011926931311
    Two-Electron Energy =                 362.0510221290676327
    Total Energy =                       -303.6916825657564232

Computation Completed

  //>>>>>>>>>>>>>>>>>>>>>>>>>>>>>>>>>>>//
  //                SCF                //
  //<<<<<<<<<<<<<<<<<<<<<<<<<<<<<<<<<<<//

   => Loading Basis Set <=

    Name: HEAVY-AUG-CC-PV(T+D)Z
    Role: ORBITAL
    Keyword: BASIS
    atoms 1, 4, 7, 10     entry C          line   273 file /opt/psi/4/master/share/psi4/basis/heavy-aug-cc-pv_tpd_z.gbs 
    atoms 2-3, 5-6, 8, 11 entry H          line    86 file /opt/psi/4/master/share/psi4/basis/heavy-aug-cc-pv_tpd_z.gbs 
    atoms 9, 12           entry O          line   365 file /opt/psi/4/master/share/psi4/basis/heavy-aug-cc-pv_tpd_z.gbs 


         ---------------------------------------------------------
                                   SCF
               by Justin Turney, Rob Parrish, Andy Simmonett
                          and Daniel G. A. Smith
                              RHF Reference
                        4 Threads,    500 MiB Core
         ---------------------------------------------------------

  ==> Geometry <==

    Molecular point group: c1
    Full point group: C1

    Geometry (in Angstrom), charge = 0, multiplicity = 1:

       Center              X                  Y                   Z               Mass       
    ------------   -----------------  -----------------  -----------------  -----------------
         C           -1.174199517890    -0.774961658783    -0.000122119707    12.000000000000
         H           -1.619191780690    -1.211086467183    -0.891051837007     1.007825032230
         H           -1.619266333190    -1.211279077683     0.890674642893     1.007825032230
         C           -1.174315833390     0.774780790217     0.000039360393    12.000000000000
         H           -1.619438560890     1.213281968023     0.890963926720     1.007825032230
         H           -1.619564647949     1.210696346863    -0.890756496668     1.007825032230
         C            0.352734786005     0.922149480468     0.000132662260    12.000000000000
         H            0.838453876955     1.892354869478     0.000284783474     1.007825032230
         O            0.767438536859     0.000187973880    -1.027327527834    15.994914619570
         C            0.353150272127    -0.922241879197    -0.000113936461    12.000000000000
         H            0.839311910135    -1.892224872543    -0.000230105783     1.007825032230
         O            0.767350326322    -0.000092768409     1.027382819726    15.994914619570

  Running in c1 symmetry.

  Rotational constants: A =      0.19851  B =      0.16229  C =      0.14676 [cm^-1]
  Rotational constants: A =   5951.27291  B =   4865.27725  C =   4399.66939 [MHz]
  Nuclear repulsion =  257.003796497869075

  Charge       = 0
  Multiplicity = 1
  Electrons    = 46
  Nalpha       = 23
  Nbeta        = 23

  ==> Algorithm <==

  SCF Algorithm Type is DF.
  DIIS enabled.
  MOM disabled.
  Fractional occupation disabled.
  Guess Type is SAD.
  Energy threshold   = 1.00e-10
  Density threshold  = 1.00e-10
  Integral threshold = 0.00e+00

  ==> Primary Basis <==

  Basis Set: HEAVY-AUG-CC-PV(T+D)Z
    Blend: HEAVY-AUG-CC-PV(T+D)Z
    Number of shells: 120
    Number of basis function: 360
    Number of Cartesian functions: 420
    Spherical Harmonics?: true
    Max angular momentum: 3

   => Loading Basis Set <=

    Name: (HEAVY-AUG-CC-PV(T+D)Z AUX)
    Role: JKFIT
    Keyword: DF_BASIS_SCF
    atoms 1, 4, 7, 10     entry C          line   200 file /opt/psi/4/master/share/psi4/basis/heavy-aug-cc-pvtz-jkfit.gbs 
    atoms 2-3, 5-6, 8, 11 entry H          line   116 file /opt/psi/4/master/share/psi4/basis/heavy-aug-cc-pvtz-jkfit.gbs 
    atoms 9, 12           entry O          line   324 file /opt/psi/4/master/share/psi4/basis/heavy-aug-cc-pvtz-jkfit.gbs 


  Computing basis projection from PCSEG-0 to HEAVY-AUG-CC-PV(T+D)Z

  ==> Integral Setup <==

  ==> DiskDFJK: Density-Fitted J/K Matrices <==

    J tasked:                  Yes
    K tasked:                  Yes
    wK tasked:                  No
    OpenMP threads:              4
    Integrals threads:           4
    Memory [MiB]:              375
    Algorithm:                Disk
    Integral Cache:           NONE
    Schwarz Cutoff:          1E-12
    Fitting Condition:       1E-10

   => Auxiliary Basis Set <=

  Basis Set: (HEAVY-AUG-CC-PV(T+D)Z AUX)
    Blend: HEAVY-AUG-CC-PVTZ-JKFIT
    Number of shells: 240
    Number of basis function: 804
    Number of Cartesian functions: 996
    Spherical Harmonics?: true
    Max angular momentum: 4

  Minimum eigenvalue in the overlap matrix is 5.5282849564E-06.
  Reciprocal condition number of the overlap matrix is 4.0417995275E-07.
    Using symmetric orthogonalization.

  ==> Pre-Iterations <==

  SCF Guess: Orbitals guess was supplied from a previous computation.

   -------------------------
    Irrep   Nso     Nmo    
   -------------------------
     A        360     360 
   -------------------------
    Total     360     360
   -------------------------

  ==> Iterations <==

                           Total Energy        Delta E     RMS |[F,P]|

   @DF-RHF iter   0:  -304.36279103563936   -3.04363e+02   4.15886e-03 
   @DF-RHF iter   1:  -304.71636397706470   -3.53573e-01   5.72531e-04 DIIS
   @DF-RHF iter   2:  -304.73152700327711   -1.51630e-02   2.71851e-04 DIIS
   @DF-RHF iter   3:  -304.73522100590566   -3.69400e-03   4.87373e-05 DIIS
   @DF-RHF iter   4:  -304.73548497125421   -2.63965e-04   1.57964e-05 DIIS
   @DF-RHF iter   5:  -304.73550603108697   -2.10598e-05   6.25305e-06 DIIS
   @DF-RHF iter   6:  -304.73550993006256   -3.89898e-06   1.42044e-06 DIIS
   @DF-RHF iter   7:  -304.73551019563666   -2.65574e-07   3.12864e-07 DIIS
   @DF-RHF iter   8:  -304.73551020986952   -1.42329e-08   7.99757e-08 DIIS
   @DF-RHF iter   9:  -304.73551021080686   -9.37348e-10   2.59806e-08 DIIS
   @DF-RHF iter  10:  -304.73551021089190   -8.50378e-11   6.47818e-09 DIIS
   @DF-RHF iter  11:  -304.73551021089838   -6.48015e-12   1.69329e-09 DIIS
   @DF-RHF iter  12:  -304.73551021089895   -5.68434e-13   4.84330e-10 DIIS
   @DF-RHF iter  13:  -304.73551021089906   -1.13687e-13   1.08583e-10 DIIS
   @DF-RHF iter  14:  -304.73551021089872    3.41061e-13   5.58718e-11 DIIS
  Energy and wave function converged.


  ==> Post-Iterations <==

    Orbital Energies [Eh]
    ---------------------

    Doubly Occupied:                                                      

       1A    -20.568136     2A    -20.568098     3A    -11.349663  
       4A    -11.349621     5A    -11.237773     6A    -11.237205  
       7A     -1.491678     8A     -1.293040     9A     -1.067626  
      10A     -0.988205    11A     -0.810368    12A     -0.789647  
      13A     -0.746578    14A     -0.672366    15A     -0.651345  
      16A     -0.646277    17A     -0.534230    18A     -0.524396  
      19A     -0.519487    20A     -0.512061    21A     -0.509811  
      22A     -0.459470    23A     -0.433487  

    Virtual:                                                              

      24A      0.050339    25A      0.050959    26A      0.059702  
      27A      0.072057    28A      0.073424    29A      0.092446  
      30A      0.093542    31A      0.096707    32A      0.116623  
      33A      0.126305    34A      0.127401    35A      0.130069  
      36A      0.162102    37A      0.176071    38A      0.195290  
      39A      0.204148    40A      0.206504    41A      0.214120  
      42A      0.220418    43A      0.228364    44A      0.233846  
      45A      0.249395    46A      0.268434    47A      0.268606  
      48A      0.277121    49A      0.295353    50A      0.300760  
      51A      0.312885    52A      0.331216    53A      0.335327  
      54A      0.341766    55A      0.347776    56A      0.356227  
      57A      0.356969    58A      0.362586    59A      0.374768  
      60A      0.397688    61A      0.404419    62A      0.412745  
      63A      0.421282    64A      0.432424    65A      0.446459  
      66A      0.457832    67A      0.465021    68A      0.485352  
      69A      0.492962    70A      0.503859    71A      0.510909  
      72A      0.516708    73A      0.519784    74A      0.527004  
      75A      0.528717    76A      0.543696    77A      0.545929  
      78A      0.580822    79A      0.591990    80A      0.608139  
      81A      0.613189    82A      0.620795    83A      0.653701  
      84A      0.658681    85A      0.673172    86A      0.721937  
      87A      0.735782    88A      0.747658    89A      0.753869  
      90A      0.770359    91A      0.780889    92A      0.791176  
      93A      0.797155    94A      0.815692    95A      0.818585  
      96A      0.828051    97A      0.844046    98A      0.877687  
      99A      0.891328   100A      0.926869   101A      0.928749  
     102A      0.938721   103A      0.946017   104A      0.970423  
     105A      0.985544   106A      0.998621   107A      1.032141  
     108A      1.036916   109A      1.038557   110A      1.060299  
     111A      1.082284   112A      1.096399   113A      1.114054  
     114A      1.120850   115A      1.138263   116A      1.160757  
     117A      1.185494   118A      1.222808   119A      1.247413  
     120A      1.251720   121A      1.261079   122A      1.283209  
     123A      1.321660   124A      1.329822   125A      1.335737  
     126A      1.352878   127A      1.373558   128A      1.383831  
     129A      1.398593   130A      1.403541   131A      1.415098  
     132A      1.446473   133A      1.447575   134A      1.457996  
     135A      1.483406   136A      1.498866   137A      1.505804  
     138A      1.528528   139A      1.546525   140A      1.560424  
     141A      1.581613   142A      1.586162   143A      1.586757  
     144A      1.589056   145A      1.599927   146A      1.654341  
     147A      1.656644   148A      1.670270   149A      1.677185  
     150A      1.684038   151A      1.698574   152A      1.707789  
     153A      1.715668   154A      1.731787   155A      1.735428  
     156A      1.750250   157A      1.752236   158A      1.791724  
     159A      1.799715   160A      1.807118   161A      1.822719  
     162A      1.901404   163A      1.902123   164A      1.930438  
     165A      1.939606   166A      1.949828   167A      1.984657  
     168A      1.990530   169A      2.003109   170A      2.007875  
     171A      2.026753   172A      2.046477   173A      2.055129  
     174A      2.058813   175A      2.150601   176A      2.151456  
     177A      2.209146   178A      2.252327   179A      2.300692  
     180A      2.333898   181A      2.392364   182A      2.401377  
     183A      2.419771   184A      2.443676   185A      2.450877  
     186A      2.472175   187A      2.503938   188A      2.508368  
     189A      2.540889   190A      2.579612   191A      2.628616  
     192A      2.645728   193A      2.682333   194A      2.685832  
     195A      2.723839   196A      2.769231   197A      2.787686  
     198A      2.875385   199A      2.875639   200A      2.891075  
     201A      2.914545   202A      2.921507   203A      2.954059  
     204A      2.959169   205A      2.963737   206A      3.076730  
     207A      3.098085   208A      3.119346   209A      3.127661  
     210A      3.181191   211A      3.186764   212A      3.205574  
     213A      3.215684   214A      3.240413   215A      3.261422  
     216A      3.306484   217A      3.332748   218A      3.408501  
     219A      3.412189   220A      3.414664   221A      3.434638  
     222A      3.441165   223A      3.472002   224A      3.484429  
     225A      3.500823   226A      3.524706   227A      3.538573  
     228A      3.602311   229A      3.626467   230A      3.630618  
     231A      3.667222   232A      3.683017   233A      3.695576  
     234A      3.706361   235A      3.728309   236A      3.730123  
     237A      3.748851   238A      3.816111   239A      3.832701  
     240A      3.842986   241A      3.866078   242A      3.873694  
     243A      3.926710   244A      3.952052   245A      3.959844  
     246A      3.961326   247A      3.964582   248A      4.004093  
     249A      4.018806   250A      4.048921   251A      4.053555  
     252A      4.073703   253A      4.104971   254A      4.111752  
     255A      4.144799   256A      4.163144   257A      4.169899  
     258A      4.180258   259A      4.185716   260A      4.211610  
     261A      4.235144   262A      4.244755   263A      4.258062  
     264A      4.263527   265A      4.267621   266A      4.315839  
     267A      4.343457   268A      4.365570   269A      4.424786  
     270A      4.471105   271A      4.479098   272A      4.482032  
     273A      4.495510   274A      4.511526   275A      4.526505  
     276A      4.552065   277A      4.582957   278A      4.637665  
     279A      4.688185   280A      4.688723   281A      4.701864  
     282A      4.706277   283A      4.730625   284A      4.743269  
     285A      4.755495   286A      4.805595   287A      4.819956  
     288A      4.820821   289A      4.837980   290A      4.885429  
     291A      4.906564   292A      4.957617   293A      4.963768  
     294A      4.964262   295A      5.096145   296A      5.117540  
     297A      5.124952   298A      5.190106   299A      5.193409  
     300A      5.238525   301A      5.265143   302A      5.281944  
     303A      5.394337   304A      5.417442   305A      5.435049  
     306A      5.464791   307A      5.471769   308A      5.580991  
     309A      5.581508   310A      5.595596   311A      5.652465  
     312A      5.704313   313A      5.712322   314A      5.717336  
     315A      5.861235   316A      5.867824   317A      5.897452  
     318A      5.925914   319A      6.060061   320A      6.122587  
     321A      6.140896   322A      6.204929   323A      6.240779  
     324A      6.281061   325A      6.284290   326A      6.347862  
     327A      6.383277   328A      6.493317   329A      6.559712  
     330A      6.901275   331A      6.901529   332A      6.939404  
     333A      6.962660   334A      6.996083   335A      7.024343  
     336A      7.104607   337A      7.128381   338A      7.172208  
     339A      7.189227   340A      7.226196   341A      7.238084  
     342A      7.389183   343A      7.488102   344A      7.587901  
     345A      7.608698   346A      7.634430   347A      7.736823  
     348A      7.793219   349A      7.820825   350A      7.910740  
     351A      8.038101   352A      8.194554   353A      8.219567  
     354A      8.226919   355A     14.245127   356A     15.435789  
     357A     15.553738   358A     15.865905   359A     17.392605  
     360A     18.707953  

    Final Occupation by Irrep:
              A 
    DOCC [    23 ]

  @DF-RHF Final Energy:  -304.73551021089872

   => Energetics <=

    Nuclear Repulsion Energy =            257.0037964978690752
    One-Electron Energy =                -925.5574810917370314
    Two-Electron Energy =                 363.8181743829692323
    Total Energy =                       -304.7355102108987239

Computation Completed


Properties will be evaluated at   0.000000,   0.000000,   0.000000 [a0]

Properties computed using the SCF density matrix

  Nuclear Dipole Moment: [e a0]
     X:    -4.4922      Y:     0.0016      Z:    -0.0001

  Electronic Dipole Moment: [e a0]
     X:     3.7201      Y:    -0.0018      Z:    -0.0002

  Dipole Moment: [e a0]
     X:    -0.7721      Y:    -0.0002      Z:    -0.0003     Total:     0.7721

  Dipole Moment: [D]
     X:    -1.9624      Y:    -0.0004      Z:    -0.0007     Total:     1.9624


*** tstop() called on n061 at Mon Jun  8 13:43:31 2020
Module time:
	user time   =      36.69 seconds =       0.61 minutes
	system time =       1.80 seconds =       0.03 minutes
	total time  =         10 seconds =       0.17 minutes
Total time:
	user time   =     202.01 seconds =       3.37 minutes
	system time =       8.68 seconds =       0.14 minutes
	total time  =         56 seconds =       0.93 minutes

*** tstart() called on n061
*** at Mon Jun  8 13:43:31 2020


  //>>>>>>>>>>>>>>>>>>>>>>>>>>>>>>>>>>>//
  //               DFMP2               //
  //<<<<<<<<<<<<<<<<<<<<<<<<<<<<<<<<<<<//

   => Loading Basis Set <=

    Name: (HEAVY-AUG-CC-PV(T+D)Z AUX)
    Role: RIFIT
    Keyword: DF_BASIS_MP2
    atoms 1, 4, 7, 10     entry C          line   148 file /opt/psi/4/master/share/psi4/basis/heavy-aug-cc-pvtz-ri.gbs 
    atoms 2-3, 5-6, 8, 11 entry H          line    44 file /opt/psi/4/master/share/psi4/basis/heavy-aug-cc-pvtz-ri.gbs 
    atoms 9, 12           entry O          line   264 file /opt/psi/4/master/share/psi4/basis/heavy-aug-cc-pvtz-ri.gbs 

	 --------------------------------------------------------
	                          DF-MP2                         
	      2nd-Order Density-Fitted Moller-Plesset Theory     
	              RMP2 Wavefunction,   4 Threads             
	                                                         
	        Rob Parrish, Justin Turney, Andy Simmonett,      
	           Ed Hohenstein, and C. David Sherrill          
	 --------------------------------------------------------

   => Auxiliary Basis Set <=

  Basis Set: (HEAVY-AUG-CC-PV(T+D)Z AUX)
    Blend: HEAVY-AUG-CC-PVTZ-RI
    Number of shells: 228
    Number of basis function: 816
    Number of Cartesian functions: 1026
    Spherical Harmonics?: true
    Max angular momentum: 4

	 --------------------------------------------------------
	                 NBF =   360, NAUX =   816
	 --------------------------------------------------------
	   CLASS    FOCC     OCC    AOCC    AVIR     VIR    FVIR
	   PAIRS       6      23      17     337     337       0
	 --------------------------------------------------------

	-----------------------------------------------------------
	 ==================> DF-MP2 Energies <==================== 
	-----------------------------------------------------------
	 Reference Energy          =    -304.7355102108987239 [Eh]
	 Singles Energy            =      -0.0000000000000000 [Eh]
	 Same-Spin Energy          =      -0.2854802813961493 [Eh]
	 Opposite-Spin Energy      =      -0.8633179007679106 [Eh]
	 Correlation Energy        =      -1.1487981821640598 [Eh]
	 Total Energy              =    -305.8843083930627813 [Eh]
	-----------------------------------------------------------
	 ================> DF-SCS-MP2 Energies <================== 
	-----------------------------------------------------------
	 SCS Same-Spin Scale       =       0.3333333333333333 [-]
	 SCS Opposite-Spin Scale   =       1.2000000000000000 [-]
	 SCS Same-Spin Energy      =      -0.0951600937987164 [Eh]
	 SCS Opposite-Spin Energy  =      -1.0359814809214927 [Eh]
	 SCS Correlation Energy    =      -1.1311415747202092 [Eh]
	 SCS Total Energy          =    -305.8666517856189557 [Eh]
	-----------------------------------------------------------


*** tstop() called on n061 at Mon Jun  8 13:43:33 2020
Module time:
	user time   =       6.76 seconds =       0.11 minutes
	system time =       0.11 seconds =       0.00 minutes
	total time  =          2 seconds =       0.03 minutes
Total time:
	user time   =     208.78 seconds =       3.48 minutes
	system time =       8.79 seconds =       0.15 minutes
	total time  =         58 seconds =       0.97 minutes

========================OPTAVC-XTPL==========================

MP2/TZ correlation energy -1.1487981821640598

=============================================================

    Psi4 stopped on: Monday, 08 June 2020 01:43PM
    Psi4 wall time for execution: 0:00:57.62

*** Psi4 exiting successfully. Buy a developer a beer!
