
 Primary working directories    : /tmp/320938.205.gen6.q
 Secondary working directories  : /tmp/320938.205.gen6.q
 Wavefunction directory         : /home/vulcan/mel64643/wfu/
 Main file repository           : /tmp/320938.205.gen6.q/

 ARCHNAME  : Linux/x86_64
 FC        : /opt/intel/compilers_and_libraries_2016.1.150/linux/bin/intel64/ifort
 FCVERSION : 16.0.1
 BLASLIB   : -mkl
 id        : ccgc

 Nodes     nprocs
 n083         3
 Number of processes for MPI-2 version of Molpro:   nprocs(total)=    4   nprocs(compute)=    3   nprocs(helper)=    1
 ga_uses_ma=false, calling ma_init with nominal heap.
 GA-space will be limited to   8.0 MW (determined by -G option)

 Using customized tuning parameters: mindgm=10; mindgv=16; mindgc=4; mindgr=1; noblas=0; mincuda=1000; minvec=7
 default implementation of scratch files=sf  

 ***,Frequencies for min3
 memory,1000,m
 gthresh,energy=1.0d-10,orbital=1.0d-10,oneint=1.0d-16,twoint=1.0d-16,optgrad=1.0d-6,compress=1.0d-13
 geomtyp=xyz
 
  geometry = {
  12
  arbitrary comment
     C    1.776964391707    0.711398808326   -0.047331391796
     C    0.491811976407   -0.059992870174   -0.196493901896
     C    0.450909202373   -1.536434052255    0.101438343178
     O   -0.560880647667    0.727241277701    0.254443032848
     O   -1.837679306628    0.092420550166   -0.120535053959
     H    2.584340763739    0.211161151823   -0.611449592426
     H    1.659551183936    1.742679160159   -0.426549827097
     H    2.094150550724    0.773803912169    1.017638641452
     H   -0.506128066538   -1.982761869838   -0.220075458004
     H    1.280630344935   -2.047374725152   -0.417151154675
     H    0.560556191437   -1.719255068323    1.194749760874
     H   -1.989044063687    0.550997552254   -0.967002143089
  }
 
 basis=cc-pvdz
 {rhf;maxit,200}
 {uccsd(t);maxit,200}

 Variables initialized (661), CPU time= 0.00 sec
 Commands  initialized (458), CPU time= 0.00 sec, 486 directives.
 Default parameters read. Elapsed time= 0.04 sec

 Checking input...
 Passed
1


                                         ***  PROGRAM SYSTEM MOLPRO  ***
                         Copyright, University College Cardiff Consultants Limited, 2008

                                    Version 2010.1 linked May 16 2016 07:17:05


 **********************************************************************************************************************************
 LABEL *   Frequencies for min3                                                          
 Linux-4.4.3/n083(x86_64) 64 bit mpp version                                             DATE: 07-Mar-20          TIME: 02:08:49  
 **********************************************************************************************************************************

 SHA1:             9e8077add272b0f3cad6f7df79ec5211205f459d
 **********************************************************************************************************************************

 THRESHOLDS:

 ZERO    =  1.00D-12  ONEINT  =  1.00D-16  TWOINT  =  1.00D-16  PREFAC  =  1.00D-14  LOCALI  =  1.00D-09  EORDER  =  1.00D-04
 ENERGY  =  1.00D-10  ETEST   =  0.00D+00  EDENS   =  0.00D+00  THRDEDEF=  1.00D-06  GRADIENT=  1.00D-02  STEP    =  1.00D-03
 ORBITAL =  1.00D-10  CIVEC   =  1.00D-05  COEFF   =  1.00D-04  PRINTCI =  5.00D-02  PUNCHCI =  9.90D+01  OPTGRAD =  1.00D-06
 OPTENERG=  1.00D-06  OPTSTEP =  3.00D-04  THRGRAD =  1.00D-10  COMPRESS=  1.00D-13  VARMIN  =  1.00D-07  VARMAX  =  1.00D-03
 THRDOUB =  0.00D+00  THRDIV  =  1.00D-05  THRRED  =  1.00D-07  THRPSP  =  1.00D+00  THRDC   =  1.00D-10  THRCS   =  1.00D-10
 THRNRM  =  1.00D-08  THREQ   =  0.00D+00  THRDE   =  1.00D+00  THRREF  =  1.00D-05  SPARFAC =  1.00D+00  THRDLP  =  1.00D-07
 THRDIA  =  1.00D-10  THRDLS  =  1.00D-07  THRGPS  =  0.00D+00  THRKEX  =  0.00D+00  THRDIS  =  2.00D-01  THRVAR  =  1.00D-10
 THRLOC  =  1.00D-06  THRGAP  =  1.00D-06  THRLOCT = -1.00D+00  THRGAPT = -1.00D+00  THRORB  =  1.00D-06  THRMLTP =  0.00D+00
 THRCPQCI=  1.00D-10  KEXTA   =  0.00D+00  THRCOARS=  0.00D+00  SYMTOL  =  1.00D-06  GRADTOL =  1.00D-06  THROVL  =  1.00D-08
 THRORTH =  1.00D-08  GRID    =  1.00D-06  GRIDMAX =  1.00D-03  DTMAX   =  0.00D+00

 SETTING GEOMTYP        =    XYZ

 Variable memory set to 1000000000 words,  buffer space   230000 words

 SETTING BASIS          =    CC-PVDZ


 Recomputing integrals since basis changed


 Using spherical harmonics

 Library entry C      S cc-pVDZ              selected for orbital group  1
 Library entry C      P cc-pVDZ              selected for orbital group  1
 Library entry C      D cc-pVDZ              selected for orbital group  1
 Library entry O      S cc-pVDZ              selected for orbital group  2
 Library entry O      P cc-pVDZ              selected for orbital group  2
 Library entry O      D cc-pVDZ              selected for orbital group  2
 Library entry H      S cc-pVDZ              selected for orbital group  3
 Library entry H      P cc-pVDZ              selected for orbital group  3

1PROGRAM * SEWARD (Integral evaluation for generally contracted gaussian basis sets)     Author: Roland Lindh, 1990

 Geometry written to block  1 of record 700


 Point group  C1  



 ATOMIC COORDINATES

 NR  ATOM    CHARGE       X              Y              Z

   1  C       6.00    3.357976046    1.344348918   -0.089443368
   2  C       6.00    0.929389944   -0.113370094   -0.371319661
   3  C       6.00    0.852094903   -2.903439578    0.191690688
   4  O       8.00   -1.059910817    1.374286846    0.480827648
   5  O       8.00   -3.472710607    0.174649529   -0.227778241
   6  H       1.00    4.883696274    0.399036747   -1.155472273
   7  H       1.00    3.136097239    3.293186348   -0.806062355
   8  H       1.00    3.957371019    1.462277473    1.923058333
   9  H       1.00   -0.956443433   -3.746876918   -0.415882344
  10  H       1.00    2.420040628   -3.868977519   -0.788301438
  11  H       1.00    1.059297683   -3.248921229    2.257749844
  12  H       1.00   -3.758748544    1.041234473   -1.827369219

 Bond lengths in Bohr (Angstrom)

 1-2  2.846476668  1-6  2.087547590  1-7  2.088238565  1-8  2.103174880  2-3  2.847357178
     ( 1.506290578)     ( 1.104682608)     ( 1.105048256)     ( 1.112952213)     ( 1.506756524)

  2- 4  2.626137035   3- 9  2.085987164   3-10  2.085929500   3-11  2.104968171   4- 5  2.786190020
       ( 1.389691866)       ( 1.103856865)       ( 1.103826351)       ( 1.113901182)       ( 1.474388259)

  5-12  1.841596716
       ( 0.974531010)

 Bond angles

  1-2-3  120.35726316   1-2-4  108.90844623   2-1-6  109.94376152   2-1-7  110.68876839

  2- 1- 8  111.50776914   2- 3- 9  111.23189738   2- 3-10  109.89314852   2- 3-11  110.62367413

  2- 4- 5  109.24154043   3- 2- 4  118.05762328   4- 5-12   98.78946927   6- 1- 7  108.96663849

  6- 1- 8  107.80283504   7- 1- 8  107.83800864   9- 3-10  109.12933048   9- 3-11  107.74978172

 10- 3-11  108.12938877

 NUCLEAR CHARGE:                   41
 NUMBER OF PRIMITIVE AOS:         184
 NUMBER OF SYMMETRY AOS:          179
 NUMBER OF CONTRACTIONS:          105   ( 105A   )
 NUMBER OF CORE ORBITALS:           5   (   5A   )
 NUMBER OF VALENCE ORBITALS:       27   (  27A   )


 NUCLEAR REPULSION ENERGY  183.22910367


 Eigenvalues of metric

         1 0.345E-02 0.435E-02 0.105E-01 0.141E-01 0.182E-01 0.214E-01 0.332E-01 0.345E-01


 Contracted 2-electron integrals neglected if value below      1.0D-16
 AO integral compression algorithm  1   Integral accuracy      1.0D-16

     127.664 MB (compressed) written to integral file ( 93.2%)

     Node minimum: 33.817 MB, node maximum: 56.623 MB


 NUMBER OF SORTED TWO-ELECTRON INTEGRALS:    5164320.     BUFFER LENGTH:  32768
 NUMBER OF SEGMENTS:   1  SEGMENT LENGTH:    5164320      RECORD LENGTH: 524288

 Memory used in sort:       5.72 MW

 SORT1 READ    17075386. AND WROTE     5135958. INTEGRALS IN     15 RECORDS. CPU TIME:     0.30 SEC, REAL TIME:     0.34 SEC
 SORT2 READ    15396818. AND WROTE    15487395. INTEGRALS IN    387 RECORDS. CPU TIME:     0.09 SEC, REAL TIME:     0.13 SEC

 Node minimum:     5160610.  Node maximum:     5164320. integrals

 OPERATOR DM      FOR CENTER  0  COORDINATES:    0.000000    0.000000    0.000000


 **********************************************************************************************************************************
 DATASETS  * FILE   NREC   LENGTH (MB)   RECORD NAMES
              1      18        3.17       500      610      700      900      950      970     1000      129      960     1100   
                                          VAR    BASINP    GEOM    SYMINP    ZMAT    AOBASIS   BASIS     P2S    ABASIS      S 
                                         1400     1410     1200     1210     1080     1600     1650     1700   
                                           T        V       H0       H01     AOSYM     SMH    MOLCAS    OPER   

 PROGRAMS   *        TOTAL       INT
 CPU TIMES  *         1.10      1.06
 REAL TIME  *         1.49 SEC
 DISK USED  *       318.33 MB      
 GA USED    *         0.00 MB       (max)       0.00 MB       (current)
 **********************************************************************************************************************************

1PROGRAM * RHF-SCF (OPEN SHELL)       Authors: W. Meyer, H.-J. Werner


 NUMBER OF ELECTRONS:      21+   20-    SPACE SYMMETRY=1    SPIN SYMMETRY: Doublet 
 CONVERGENCE THRESHOLDS:    1.00E-10 (Density)    1.00E-11 (Energy)
 MAX. NUMBER OF ITERATIONS:      200
 INTERPOLATION TYPE:            DIIS
 INTERPOLATION STEPS:              2 (START)      1 (STEP)
 LEVEL SHIFTS:                 -0.30 (CLOSED)  0.00 (OPEN) 



 Orbital guess generated from atomic densities. Full valence occupancy:   32

 Molecular orbital dump at record        2100.2

 ITERATION    DDIFF          GRAD             ENERGY        2-EL.EN.            DIPOLE MOMENTS         DIIS
    1      0.000D+00      0.000D+00      -267.17831966    555.831079    0.56575    0.04984   -0.74913    0
    2      0.000D+00      0.617D-02      -267.24898838    555.754681    0.41279   -0.13100   -0.59896    1
    3      0.927D-02      0.214D-02      -267.26115402    555.672237    0.39282   -0.05916   -0.62616    2
    4      0.336D-02      0.912D-03      -267.26475484    555.824669    0.37865   -0.09933   -0.64255    3
    5      0.186D-02      0.363D-03      -267.26532176    555.796102    0.38133   -0.09286   -0.63550    4
    6      0.791D-03      0.110D-03      -267.26539773    555.782309    0.37963   -0.09266   -0.63823    5
    7      0.276D-03      0.509D-04      -267.26541770    555.779328    0.37893   -0.09241   -0.63772    6
    8      0.143D-03      0.271D-04      -267.26542371    555.777369    0.37921   -0.09252   -0.63793    7
    9      0.920D-04      0.115D-04      -267.26542462    555.777689    0.37939   -0.09248   -0.63769    8
   10      0.364D-04      0.499D-05      -267.26542477    555.778297    0.37965   -0.09249   -0.63776    9
   11      0.146D-04      0.196D-05      -267.26542480    555.778139    0.37970   -0.09249   -0.63776    9
   12      0.648D-05      0.669D-06      -267.26542480    555.778274    0.37972   -0.09249   -0.63776    9
   13      0.227D-05      0.226D-06      -267.26542480    555.778190    0.37972   -0.09249   -0.63776    9
   14      0.632D-06      0.757D-07      -267.26542480    555.778198    0.37972   -0.09249   -0.63776    9
   15      0.193D-06      0.300D-07      -267.26542480    555.778194    0.37972   -0.09249   -0.63775    9
   16      0.824D-07      0.145D-07      -267.26542480    555.778196    0.37972   -0.09249   -0.63775    9
   17      0.374D-07      0.750D-08      -267.26542480    555.778196    0.37972   -0.09249   -0.63775    9
   18      0.222D-07      0.341D-08      -267.26542480    555.778196    0.37972   -0.09249   -0.63775    9
   19      0.114D-07      0.133D-08      -267.26542480    555.778196    0.37972   -0.09249   -0.63775    9
   20      0.442D-08      0.565D-09      -267.26542480    555.778196    0.37972   -0.09249   -0.63775    9
   21      0.165D-08      0.285D-09      -267.26542480    555.778196    0.37972   -0.09249   -0.63775    9
   22      0.750D-09      0.161D-09      -267.26542480    555.778196    0.37972   -0.09249   -0.63775    9
   23      0.444D-09      0.792D-10      -267.26542480    555.778196    0.37972   -0.09249   -0.63775    9
   24      0.262D-09      0.315D-10      -267.26542480    555.778196    0.37972   -0.09249   -0.63775    9
   25      0.928D-10      0.129D-10      -267.26542480    555.778196    0.37972   -0.09249   -0.63775    0

 Final alpha occupancy:  21
 Final beta  occupancy:  20

 !RHF STATE 1.1 Energy               -267.265424803680
 Nuclear energy                       183.22910367
 One-electron energy                 -728.38362640
 Two-electron energy                  277.88909793
 Virial quotient                       -1.00155082
 !RHF STATE 1.1 Dipole moment           0.37972193    -0.09249158    -0.63775499
 Dipole moment /Debye                   0.96509366    -0.23507474    -1.62090533

 Orbital energies:

         1.1          2.1          3.1          4.1          5.1          6.1          7.1          8.1          9.1         10.1
    -20.630451   -20.628756   -11.279217   -11.237756   -11.232160    -1.470193    -1.240615    -1.023252    -0.945355    -0.768463

        11.1         12.1         13.1         14.1         15.1         16.1         17.1         18.1         19.1         20.1
     -0.704589    -0.642881    -0.626801    -0.588842    -0.545049    -0.543500    -0.539269    -0.516877    -0.492907    -0.469640

        21.1         22.1         23.1
     -0.352289     0.181281     0.183602


 **********************************************************************************************************************************
 DATASETS  * FILE   NREC   LENGTH (MB)   RECORD NAMES
              1      18        3.17       500      610      700      900      950      970     1000      129      960     1100   
                                          VAR    BASINP    GEOM    SYMINP    ZMAT    AOBASIS   BASIS     P2S    ABASIS      S 
                                         1400     1410     1200     1210     1080     1600     1650     1700   
                                           T        V       H0       H01     AOSYM     SMH    MOLCAS    OPER   

              2       3        0.77       700     1000     2100   
                                         GEOM     BASIS     RHF  

 PROGRAMS   *        TOTAL       RHF       INT
 CPU TIMES  *         2.45      1.35      1.06
 REAL TIME  *         3.00 SEC
 DISK USED  *       334.90 MB      
 SF USED    *         0.04 MB      
 GA USED    *         0.00 MB       (max)       0.00 MB       (current)
 **********************************************************************************************************************************


1PROGRAM * CCSD (Unrestricted open-shell coupled cluster)     Authors: C. Hampel, H.-J. Werner, 1991, M. Deegan, P.J. Knowles, 1992


 Convergence thresholds:  THRVAR = 1.00D-08  THRDEN = 1.00D-10

 CCSD(T)     terms to be evaluated (factor= 1.000)


 Number of core orbitals:           5 (   5 )
 Number of closed-shell orbitals:  15 (  15 )
 Number of active  orbitals:        1 (   1 )
 Number of external orbitals:      84 (  84 )

 Memory could be reduced to 24.91 Mwords without degradation in triples

 Number of N-1 electron functions:              31
 Number of N-2 electron functions:             465
 Number of singly external CSFs:              2635
 Number of doubly external CSFs:           2537250
 Total number of CSFs:                     2539885

 Molecular orbitals read from record     2100.2  Type=RHF/CANONICAL (state 1.1)

 Integral transformation finished. Total CPU:   0.87 sec, npass=  1  Memory used:  12.63 MW

 Starting RMP2 calculation

 ITER.      SQ.NORM     CORR.ENERGY   TOTAL ENERGY   ENERGY CHANGE        DEN1      VAR(S)    VAR(P)  DIIS     TIME
   1      1.24299872    -0.78634615  -268.05177095    -0.78634615    -0.00304921  0.20D-04  0.11D-02  1  1     1.19
   2      1.24563916    -0.78963450  -268.05505930    -0.00328835    -0.00000474  0.54D-06  0.19D-05  2  2     1.46
   3      1.24570466    -0.78967653  -268.05510134    -0.00004204    -0.00000003  0.16D-07  0.68D-08  3  3     1.74
   4      1.24570561    -0.78967653  -268.05510134    -0.00000000    -0.00000000  0.27D-09  0.38D-10  4  4     2.04
   5      1.24570569    -0.78967657  -268.05510137    -0.00000003    -0.00000000  0.25D-11  0.65D-12  5  5     2.36
   6      1.24570570    -0.78967657  -268.05510138    -0.00000001    -0.00000000  0.28D-13  0.86D-14  6  6     2.70
   7      1.24570570    -0.78967657  -268.05510138     0.00000000    -0.00000000  0.47D-15  0.12D-15  6  1     3.06
   8      1.24570570    -0.78967657  -268.05510138     0.00000000    -0.00000000  0.59D-17  0.13D-17  6  2     3.40

 Norm of t1 vector:      0.03892365      S-energy:    -0.00227083      T1 diagnostic:  0.00055013
 Norm of t2 vector:      0.49415651      P-energy:    -0.78740574
                                         Alpha-Beta:  -0.59339042
                                         Alpha-Alpha: -0.10093894
                                         Beta-Beta:   -0.09307638

 Spin contamination <S**2-Sz**2-Sz>     0.00104005
  Reference energy                   -267.265424803681
  RHF-RMP2 correlation energy          -0.789676572121
 !RHF-RMP2 energy                    -268.055101375803

 Starting UCCSD calculation

 ITER.      SQ.NORM     CORR.ENERGY   TOTAL ENERGY   ENERGY CHANGE        DEN1      VAR(S)    VAR(P)  DIIS     TIME
   1      1.26277522    -0.80902576  -268.07445056    -0.80902576    -0.02515116  0.38D-02  0.59D-02  1  1     9.11
   2      1.29154112    -0.83643089  -268.10185569    -0.02740512    -0.00201000  0.22D-03  0.66D-03  2  2    14.79
   3      1.30147615    -0.84092689  -268.10635170    -0.00449601    -0.00032444  0.19D-03  0.56D-04  3  3    20.48
   4      1.30638505    -0.84240313  -268.10782794    -0.00147624    -0.00007202  0.43D-04  0.14D-04  4  4    26.21
   5      1.30911228    -0.84279099  -268.10821579    -0.00038785    -0.00002364  0.19D-04  0.32D-05  5  5    31.97
   6      1.31104855    -0.84299522  -268.10842003    -0.00020424    -0.00000644  0.42D-05  0.12D-05  6  6    37.76
   7      1.31199580    -0.84305391  -268.10847872    -0.00005869    -0.00000207  0.14D-05  0.37D-06  6  2    43.53
   8      1.31243590    -0.84309649  -268.10852130    -0.00004258    -0.00000065  0.44D-06  0.11D-06  6  1    49.29
   9      1.31262021    -0.84310104  -268.10852584    -0.00000455    -0.00000022  0.15D-06  0.35D-07  6  4    54.94
  10      1.31268304    -0.84310396  -268.10852876    -0.00000292    -0.00000005  0.34D-07  0.95D-08  6  3    60.69
  11      1.31271233    -0.84310269  -268.10852749     0.00000127    -0.00000002  0.13D-07  0.28D-08  6  5    66.43
  12      1.31272264    -0.84310243  -268.10852723     0.00000026    -0.00000000  0.26D-08  0.95D-09  6  6    72.15
  13      1.31272148    -0.84310151  -268.10852632     0.00000091    -0.00000000  0.96D-09  0.28D-09  6  2    77.86
  14      1.31271629    -0.84310067  -268.10852548     0.00000084    -0.00000000  0.21D-09  0.67D-10  6  1    83.61
  15      1.31271223    -0.84310009  -268.10852489     0.00000058    -0.00000000  0.78D-10  0.19D-10  6  4    89.36
  16      1.31270906    -0.84309970  -268.10852451     0.00000038    -0.00000000  0.28D-10  0.62D-11  6  3    95.10
  17      1.31270687    -0.84309947  -268.10852427     0.00000024    -0.00000000  0.10D-10  0.24D-11  6  5   100.70
  18      1.31270596    -0.84309941  -268.10852421     0.00000006    -0.00000000  0.40D-11  0.86D-12  6  6   106.46
  19      1.31270536    -0.84309937  -268.10852418     0.00000003    -0.00000000  0.16D-11  0.37D-12  6  2   112.18
  20      1.31270504    -0.84309936  -268.10852417     0.00000001    -0.00000000  0.59D-12  0.13D-12  6  1   117.93
  21      1.31270488    -0.84309935  -268.10852416     0.00000001    -0.00000000  0.28D-12  0.57D-13  6  4   123.69
  22      1.31270476    -0.84309934  -268.10852415     0.00000001    -0.00000000  0.73D-13  0.21D-13  6  3   129.45
  23      1.31270470    -0.84309934  -268.10852414     0.00000000    -0.00000000  0.21D-13  0.62D-14  6  5   135.20
  24      1.31270469    -0.84309934  -268.10852414    -0.00000000    -0.00000000  0.67D-14  0.22D-14  6  6   140.95
  25      1.31270470    -0.84309934  -268.10852415    -0.00000000    -0.00000000  0.21D-14  0.52D-15  6  2   146.70
  26      1.31270470    -0.84309934  -268.10852415    -0.00000000    -0.00000000  0.76D-15  0.15D-15  6  1   153.11
  27      1.31270471    -0.84309934  -268.10852415    -0.00000000    -0.00000000  0.20D-15  0.62D-16  6  3   158.86
  28      1.31270472    -0.84309934  -268.10852415    -0.00000000    -0.00000000  0.29D-16  0.11D-16  6  4   164.62
  29      1.31270472    -0.84309934  -268.10852415    -0.00000000    -0.00000000  0.70D-17  0.29D-17  6  5   170.35
  30      1.31270472    -0.84309934  -268.10852415    -0.00000000    -0.00000000  0.15D-17  0.53D-18  6  6   176.10
  31      1.31270472    -0.84309934  -268.10852415    -0.00000000    -0.00000000  0.35D-18  0.10D-18  6  2   181.84

 Norm of t1 vector:      0.13865863      S-energy:    -0.00282009      T1 diagnostic:  0.01616246
                                                                       D1 diagnostic:  0.06279555
 Norm of t2 vector:      0.54173657      P-energy:    -0.84027925
                                         Alpha-Beta:  -0.66483485
                                         Alpha-Alpha: -0.09147443
                                         Beta-Beta:   -0.08396998

 Spin contamination <S**2-Sz**2-Sz>     0.00216749

 Memory could be reduced to 28.85 Mwords without degradation in triples
 

 RESULTS
 =======

  Reference energy                   -267.265424803681
  UCCSD singles energy                 -0.002820091719
  UCCSD pair energy                    -0.840279252388
  UCCSD correlation energy             -0.843099344107
  Triples (T) contribution             -0.024970126147
  Total correlation energy             -0.868069470254
 
  RHF-UCCSD energy                   -268.108524147788
  RHF-UCCSD[T] energy                -268.134829540630
  RHF-UCCSD-T energy                 -268.133072763217
 !RHF-UCCSD(T) energy                -268.133494273935

 Program statistics:

 Available memory in ccsd:               999997692
 Min. memory needed in ccsd:               7337057
 Max. memory used in ccsd:                10523002
 Max. memory used in cckext:              10867977 (31 integral passes)
 Max. memory used in cckint:              12633073 ( 1 integral passes)



 **********************************************************************************************************************************
 DATASETS  * FILE   NREC   LENGTH (MB)   RECORD NAMES
              1      18        3.17       500      610      700      900      950      970     1000      129      960     1100   
                                          VAR    BASINP    GEOM    SYMINP    ZMAT    AOBASIS   BASIS     P2S    ABASIS      S 
                                         1400     1410     1200     1210     1080     1600     1650     1700   
                                           T        V       H0       H01     AOSYM     SMH    MOLCAS    OPER   

              2       3        0.77       700     1000     2100   
                                         GEOM     BASIS     RHF  

 PROGRAMS   *        TOTAL  UCCSD(T)       RHF       INT
 CPU TIMES  *       223.76    221.31      1.35      1.06
 REAL TIME  *       232.77 SEC
 DISK USED  *         1.30 GB      
 SF USED    *       553.73 MB      
 GA USED    *         0.00 MB       (max)       0.00 MB       (current)
 **********************************************************************************************************************************

        UCCSD(T)        RHF-SCF 
   -268.13349427   -267.26542480
 **********************************************************************************************************************************
 Variable memory released
