
 Primary working directories    : /tmp/320938.526.gen6.q
 Secondary working directories  : /tmp/320938.526.gen6.q
 Wavefunction directory         : /home/vulcan/mel64643/wfu/
 Main file repository           : /tmp/320938.526.gen6.q/

 ARCHNAME  : Linux/x86_64
 FC        : /opt/intel/compilers_and_libraries_2016.1.150/linux/bin/intel64/ifort
 FCVERSION : 16.0.1
 BLASLIB   : -mkl
 id        : ccgc

 Nodes     nprocs
 n085         3
 Number of processes for MPI-2 version of Molpro:   nprocs(total)=    4   nprocs(compute)=    3   nprocs(helper)=    1
 ga_uses_ma=false, calling ma_init with nominal heap.
 GA-space will be limited to   8.0 MW (determined by -G option)

 Using customized tuning parameters: mindgm=10; mindgv=16; mindgc=4; mindgr=1; noblas=0; mincuda=1000; minvec=7
 default implementation of scratch files=sf  

 ***,Frequencies for min3
 memory,1000,m
 gthresh,energy=1.0d-10,orbital=1.0d-10,oneint=1.0d-16,twoint=1.0d-16,optgrad=1.0d-6,compress=1.0d-13
 geomtyp=xyz
 
  geometry = {
  12
  arbitrary comment
     C    1.776964391707    0.711398808326   -0.047331391796
     C    0.491811976407   -0.059338630746   -0.196506267364
     C    0.450236071263   -1.536514950640    0.101473123832
     O   -0.560703746813    0.727092075810    0.254416900230
     O   -1.837824996486    0.092447655135   -0.120531053464
     H    2.585196207207    0.211149755091   -0.611437603573
     H    1.659809607181    1.742308564613   -0.426549340547
     H    2.094783588003    0.773611801500    1.017646107477
     H   -0.504418501485   -1.983974779250   -0.220055714649
     H    1.282365401355   -2.047892740916   -0.417127473222
     H    0.562160256925   -1.720043461941    1.194769946930
     H   -1.988320138979    0.549202067162   -0.967001336321
  }
 
 basis=cc-pvdz
 {rhf;maxit,200}
 {uccsd(t);maxit,200}

 Variables initialized (661), CPU time= 0.00 sec
 Commands  initialized (458), CPU time= 0.01 sec, 486 directives.
 Default parameters read. Elapsed time= 0.07 sec

 Checking input...
 Passed
1


                                         ***  PROGRAM SYSTEM MOLPRO  ***
                         Copyright, University College Cardiff Consultants Limited, 2008

                                    Version 2010.1 linked May 16 2016 07:17:05


 **********************************************************************************************************************************
 LABEL *   Frequencies for min3                                                          
 Linux-4.4.3/n085(x86_64) 64 bit mpp version                                             DATE: 07-Mar-20          TIME: 04:04:05  
 **********************************************************************************************************************************

 SHA1:             9e8077add272b0f3cad6f7df79ec5211205f459d
 **********************************************************************************************************************************

 THRESHOLDS:

 ZERO    =  1.00D-12  ONEINT  =  1.00D-16  TWOINT  =  1.00D-16  PREFAC  =  1.00D-14  LOCALI  =  1.00D-09  EORDER  =  1.00D-04
 ENERGY  =  1.00D-10  ETEST   =  0.00D+00  EDENS   =  0.00D+00  THRDEDEF=  1.00D-06  GRADIENT=  1.00D-02  STEP    =  1.00D-03
 ORBITAL =  1.00D-10  CIVEC   =  1.00D-05  COEFF   =  1.00D-04  PRINTCI =  5.00D-02  PUNCHCI =  9.90D+01  OPTGRAD =  1.00D-06
 OPTENERG=  1.00D-06  OPTSTEP =  3.00D-04  THRGRAD =  1.00D-10  COMPRESS=  1.00D-13  VARMIN  =  1.00D-07  VARMAX  =  1.00D-03
 THRDOUB =  0.00D+00  THRDIV  =  1.00D-05  THRRED  =  1.00D-07  THRPSP  =  1.00D+00  THRDC   =  1.00D-10  THRCS   =  1.00D-10
 THRNRM  =  1.00D-08  THREQ   =  0.00D+00  THRDE   =  1.00D+00  THRREF  =  1.00D-05  SPARFAC =  1.00D+00  THRDLP  =  1.00D-07
 THRDIA  =  1.00D-10  THRDLS  =  1.00D-07  THRGPS  =  0.00D+00  THRKEX  =  0.00D+00  THRDIS  =  2.00D-01  THRVAR  =  1.00D-10
 THRLOC  =  1.00D-06  THRGAP  =  1.00D-06  THRLOCT = -1.00D+00  THRGAPT = -1.00D+00  THRORB  =  1.00D-06  THRMLTP =  0.00D+00
 THRCPQCI=  1.00D-10  KEXTA   =  0.00D+00  THRCOARS=  0.00D+00  SYMTOL  =  1.00D-06  GRADTOL =  1.00D-06  THROVL  =  1.00D-08
 THRORTH =  1.00D-08  GRID    =  1.00D-06  GRIDMAX =  1.00D-03  DTMAX   =  0.00D+00

 SETTING GEOMTYP        =    XYZ

 Variable memory set to 1000000000 words,  buffer space   230000 words

 SETTING BASIS          =    CC-PVDZ


 Recomputing integrals since basis changed


 Using spherical harmonics

 Library entry C      S cc-pVDZ              selected for orbital group  1
 Library entry C      P cc-pVDZ              selected for orbital group  1
 Library entry C      D cc-pVDZ              selected for orbital group  1
 Library entry O      S cc-pVDZ              selected for orbital group  2
 Library entry O      P cc-pVDZ              selected for orbital group  2
 Library entry O      D cc-pVDZ              selected for orbital group  2
 Library entry H      S cc-pVDZ              selected for orbital group  3
 Library entry H      P cc-pVDZ              selected for orbital group  3

1PROGRAM * SEWARD (Integral evaluation for generally contracted gaussian basis sets)     Author: Roland Lindh, 1990

 Geometry written to block  1 of record 700


 Point group  C1  



 ATOMIC COORDINATES

 NR  ATOM    CHARGE       X              Y              Z

   1  C       6.00    3.357976046    1.344348918   -0.089443368
   2  C       6.00    0.929389944   -0.112133761   -0.371343028
   3  C       6.00    0.850822869   -2.903592454    0.191756414
   4  O       8.00   -1.059576522    1.374004896    0.480778265
   5  O       8.00   -3.472985921    0.174700750   -0.227770681
   6  H       1.00    4.885312828    0.399015210   -1.155449617
   7  H       1.00    3.136585588    3.292486024   -0.806061435
   8  H       1.00    3.958567286    1.461914437    1.923072442
   9  H       1.00   -0.953212823   -3.749168984   -0.415845034
  10  H       1.00    2.423319409   -3.869956427   -0.788256686
  11  H       1.00    1.062328928   -3.250411077    2.257787990
  12  H       1.00   -3.757380524    1.037841498   -1.827367694

 Bond lengths in Bohr (Angstrom)

 1-2  2.845846037  1-6  2.088727553  1-7  2.087532843  1-8  2.103509300  2-3  2.848770857
     ( 1.505956863)     ( 1.105307017)     ( 1.104674804)     ( 1.113129180)     ( 1.507504611)

  2- 4  2.625015506   3- 9  2.082960386   3-10  2.089744093   3-11  2.105588859   4- 5  2.786560060
       ( 1.389098379)       ( 1.102255164)       ( 1.105844946)       ( 1.114229636)       ( 1.474584075)

  5-12  1.839729014
       ( 0.973542665)

 Bond angles

  1-2-3  120.36135121   1-2-4  108.94734199   2-1-6  109.98835596   2-1-7  110.67758203

  2- 1- 8  111.53265719   2- 3- 9  111.34666099   2- 3-10  109.85727837   2- 3-11  110.64518961

  2- 4- 5  109.27057241   3- 2- 4  118.01439057   4- 5-12   98.80340264   6- 1- 7  108.94841224

  6- 1- 8  107.74614661   7- 1- 8  107.85186746   9- 3-10  109.09883014   9- 3-11  107.83966114

 10- 3-11  107.96267861

 NUCLEAR CHARGE:                   41
 NUMBER OF PRIMITIVE AOS:         184
 NUMBER OF SYMMETRY AOS:          179
 NUMBER OF CONTRACTIONS:          105   ( 105A   )
 NUMBER OF CORE ORBITALS:           5   (   5A   )
 NUMBER OF VALENCE ORBITALS:       27   (  27A   )


 NUCLEAR REPULSION ENERGY  183.22656224


 Eigenvalues of metric

         1 0.345E-02 0.436E-02 0.105E-01 0.141E-01 0.182E-01 0.214E-01 0.331E-01 0.346E-01


 Contracted 2-electron integrals neglected if value below      1.0D-16
 AO integral compression algorithm  1   Integral accuracy      1.0D-16

     127.402 MB (compressed) written to integral file ( 93.4%)

     Node minimum: 40.632 MB, node maximum: 43.516 MB


 NUMBER OF SORTED TWO-ELECTRON INTEGRALS:    5164320.     BUFFER LENGTH:  32768
 NUMBER OF SEGMENTS:   1  SEGMENT LENGTH:    5164320      RECORD LENGTH: 524288

 Memory used in sort:       5.72 MW

 SORT1 READ    17075251. AND WROTE     5135913. INTEGRALS IN     15 RECORDS. CPU TIME:     0.20 SEC, REAL TIME:     0.23 SEC
 SORT2 READ    15396637. AND WROTE    15487395. INTEGRALS IN    465 RECORDS. CPU TIME:     0.06 SEC, REAL TIME:     0.09 SEC

 Node minimum:     5160610.  Node maximum:     5164320. integrals

 OPERATOR DM      FOR CENTER  0  COORDINATES:    0.000000    0.000000    0.000000


 **********************************************************************************************************************************
 DATASETS  * FILE   NREC   LENGTH (MB)   RECORD NAMES
              1      18        3.17       500      610      700      900      950      970     1000      129      960     1100   
                                          VAR    BASINP    GEOM    SYMINP    ZMAT    AOBASIS   BASIS     P2S    ABASIS      S 
                                         1400     1410     1200     1210     1080     1600     1650     1700   
                                           T        V       H0       H01     AOSYM     SMH    MOLCAS    OPER   

 PROGRAMS   *        TOTAL       INT
 CPU TIMES  *         0.82      0.75
 REAL TIME  *         1.26 SEC
 DISK USED  *       305.79 MB      
 GA USED    *         0.00 MB       (max)       0.00 MB       (current)
 **********************************************************************************************************************************

1PROGRAM * RHF-SCF (OPEN SHELL)       Authors: W. Meyer, H.-J. Werner


 NUMBER OF ELECTRONS:      21+   20-    SPACE SYMMETRY=1    SPIN SYMMETRY: Doublet 
 CONVERGENCE THRESHOLDS:    1.00E-10 (Density)    1.00E-11 (Energy)
 MAX. NUMBER OF ITERATIONS:      200
 INTERPOLATION TYPE:            DIIS
 INTERPOLATION STEPS:              2 (START)      1 (STEP)
 LEVEL SHIFTS:                 -0.30 (CLOSED)  0.00 (OPEN) 



 Orbital guess generated from atomic densities. Full valence occupancy:   32

 Molecular orbital dump at record        2100.2

 ITERATION    DDIFF          GRAD             ENERGY        2-EL.EN.            DIPOLE MOMENTS         DIIS
    1      0.000D+00      0.000D+00      -267.17827823    555.821742    0.57182    0.04887   -0.74939    0
    2      0.000D+00      0.617D-02      -267.24896689    555.744467    0.41432   -0.13126   -0.59851    1
    3      0.928D-02      0.214D-02      -267.26115204    555.662228    0.39378   -0.05934   -0.62599    2
    4      0.336D-02      0.912D-03      -267.26476786    555.814647    0.37894   -0.09939   -0.64245    3
    5      0.186D-02      0.364D-03      -267.26533880    555.786033    0.38137   -0.09290   -0.63546    4
    6      0.793D-03      0.110D-03      -267.26541565    555.772333    0.37960   -0.09269   -0.63822    5
    7      0.278D-03      0.512D-04      -267.26543592    555.769314    0.37886   -0.09242   -0.63772    6
    8      0.144D-03      0.273D-04      -267.26544200    555.767385    0.37912   -0.09253   -0.63794    7
    9      0.926D-04      0.115D-04      -267.26544292    555.767689    0.37930   -0.09249   -0.63770    8
   10      0.366D-04      0.502D-05      -267.26544308    555.768304    0.37956   -0.09250   -0.63777    9
   11      0.147D-04      0.197D-05      -267.26544311    555.768145    0.37961   -0.09250   -0.63777    9
   12      0.652D-05      0.671D-06      -267.26544311    555.768279    0.37963   -0.09250   -0.63777    9
   13      0.227D-05      0.226D-06      -267.26544311    555.768195    0.37963   -0.09250   -0.63776    9
   14      0.631D-06      0.756D-07      -267.26544311    555.768203    0.37963   -0.09250   -0.63776    9
   15      0.192D-06      0.299D-07      -267.26544311    555.768199    0.37964   -0.09250   -0.63776    9
   16      0.821D-07      0.144D-07      -267.26544311    555.768201    0.37964   -0.09250   -0.63776    9
   17      0.371D-07      0.743D-08      -267.26544311    555.768201    0.37964   -0.09250   -0.63776    9
   18      0.220D-07      0.340D-08      -267.26544311    555.768201    0.37964   -0.09250   -0.63776    9
   19      0.113D-07      0.133D-08      -267.26544311    555.768201    0.37964   -0.09250   -0.63776    9
   20      0.443D-08      0.565D-09      -267.26544311    555.768201    0.37964   -0.09250   -0.63776    9
   21      0.165D-08      0.285D-09      -267.26544311    555.768201    0.37964   -0.09250   -0.63776    9
   22      0.751D-09      0.161D-09      -267.26544311    555.768201    0.37964   -0.09250   -0.63776    9
   23      0.443D-09      0.792D-10      -267.26544311    555.768201    0.37964   -0.09250   -0.63776    9
   24      0.262D-09      0.316D-10      -267.26544311    555.768201    0.37964   -0.09250   -0.63776    9
   25      0.930D-10      0.129D-10      -267.26544311    555.768201    0.37964   -0.09250   -0.63776    0

 Final alpha occupancy:  21
 Final beta  occupancy:  20

 !RHF STATE 1.1 Energy               -267.265443109666
 Nuclear energy                       183.22656224
 One-electron energy                 -728.37610590
 Two-electron energy                  277.88410055
 Virial quotient                       -1.00155106
 !RHF STATE 1.1 Dipole moment           0.37963669    -0.09250245    -0.63776338
 Dipole moment /Debye                   0.96487701    -0.23510237    -1.62092666

 Orbital energies:

         1.1          2.1          3.1          4.1          5.1          6.1          7.1          8.1          9.1         10.1
    -20.630522   -20.628776   -11.279267   -11.237825   -11.232278    -1.470366    -1.241036    -1.023117    -0.945295    -0.768645

        11.1         12.1         13.1         14.1         15.1         16.1         17.1         18.1         19.1         20.1
     -0.704745    -0.643016    -0.626820    -0.588879    -0.545131    -0.543298    -0.538983    -0.516962    -0.493155    -0.469718

        21.1         22.1         23.1
     -0.352241     0.181327     0.183533


 **********************************************************************************************************************************
 DATASETS  * FILE   NREC   LENGTH (MB)   RECORD NAMES
              1      18        3.17       500      610      700      900      950      970     1000      129      960     1100   
                                          VAR    BASINP    GEOM    SYMINP    ZMAT    AOBASIS   BASIS     P2S    ABASIS      S 
                                         1400     1410     1200     1210     1080     1600     1650     1700   
                                           T        V       H0       H01     AOSYM     SMH    MOLCAS    OPER   

              2       3        0.77       700     1000     2100   
                                         GEOM     BASIS     RHF  

 PROGRAMS   *        TOTAL       RHF       INT
 CPU TIMES  *         1.75      0.93      0.75
 REAL TIME  *         2.35 SEC
 DISK USED  *       322.36 MB      
 SF USED    *         0.04 MB      
 GA USED    *         0.00 MB       (max)       0.00 MB       (current)
 **********************************************************************************************************************************


1PROGRAM * CCSD (Unrestricted open-shell coupled cluster)     Authors: C. Hampel, H.-J. Werner, 1991, M. Deegan, P.J. Knowles, 1992


 Convergence thresholds:  THRVAR = 1.00D-08  THRDEN = 1.00D-10

 CCSD(T)     terms to be evaluated (factor= 1.000)


 Number of core orbitals:           5 (   5 )
 Number of closed-shell orbitals:  15 (  15 )
 Number of active  orbitals:        1 (   1 )
 Number of external orbitals:      84 (  84 )

 Memory could be reduced to 24.91 Mwords without degradation in triples

 Number of N-1 electron functions:              31
 Number of N-2 electron functions:             465
 Number of singly external CSFs:              2635
 Number of doubly external CSFs:           2537250
 Total number of CSFs:                     2539885

 Molecular orbitals read from record     2100.2  Type=RHF/CANONICAL (state 1.1)

 Integral transformation finished. Total CPU:   0.90 sec, npass=  1  Memory used:  12.63 MW

 Starting RMP2 calculation

 ITER.      SQ.NORM     CORR.ENERGY   TOTAL ENERGY   ENERGY CHANGE        DEN1      VAR(S)    VAR(P)  DIIS     TIME
   1      1.24299051    -0.78631794  -268.05176105    -0.78631794    -0.00304902  0.20D-04  0.11D-02  1  1     1.23
   2      1.24563105    -0.78960608  -268.05504919    -0.00328814    -0.00000474  0.54D-06  0.19D-05  2  2     1.50
   3      1.24569659    -0.78964814  -268.05509125    -0.00004206    -0.00000003  0.16D-07  0.68D-08  3  3     1.79
   4      1.24569754    -0.78964814  -268.05509125    -0.00000000    -0.00000000  0.27D-09  0.38D-10  4  4     2.11
   5      1.24569763    -0.78964817  -268.05509128    -0.00000003    -0.00000000  0.25D-11  0.65D-12  5  5     2.45
   6      1.24569764    -0.78964818  -268.05509129    -0.00000001    -0.00000000  0.28D-13  0.87D-14  6  6     2.81
   7      1.24569764    -0.78964818  -268.05509129     0.00000000    -0.00000000  0.47D-15  0.12D-15  6  1     3.17
   8      1.24569764    -0.78964818  -268.05509129     0.00000000    -0.00000000  0.59D-17  0.13D-17  6  2     3.52

 Norm of t1 vector:      0.03893276      S-energy:    -0.00227159      T1 diagnostic:  0.00055033
 Norm of t2 vector:      0.49414763      P-energy:    -0.78737658
                                         Alpha-Beta:  -0.59337216
                                         Alpha-Alpha: -0.10093338
                                         Beta-Beta:   -0.09307105

 Spin contamination <S**2-Sz**2-Sz>     0.00104064
  Reference energy                   -267.265443109666
  RHF-RMP2 correlation energy          -0.789648178760
 !RHF-RMP2 energy                    -268.055091288426

 Starting UCCSD calculation

 ITER.      SQ.NORM     CORR.ENERGY   TOTAL ENERGY   ENERGY CHANGE        DEN1      VAR(S)    VAR(P)  DIIS     TIME
   1      1.26277568    -0.80900737  -268.07445048    -0.80900737    -0.02515017  0.38D-02  0.59D-02  1  1     9.19
   2      1.29154432    -0.83641203  -268.10185514    -0.02740467    -0.00200993  0.22D-03  0.66D-03  2  2    14.85
   3      1.30148204    -0.84090825  -268.10635136    -0.00449622    -0.00032456  0.19D-03  0.56D-04  3  3    20.53
   4      1.30639449    -0.84238478  -268.10782789    -0.00147653    -0.00007213  0.43D-04  0.14D-04  4  4    26.23
   5      1.30912682    -0.84277312  -268.10821623    -0.00038834    -0.00002369  0.19D-04  0.32D-05  5  5    31.96
   6      1.31106904    -0.84297782  -268.10842093    -0.00020470    -0.00000647  0.42D-05  0.12D-05  6  6    37.76
   7      1.31202006    -0.84303669  -268.10847980    -0.00005888    -0.00000208  0.14D-05  0.37D-06  6  2    43.74
   8      1.31246243    -0.84307940  -268.10852251    -0.00004271    -0.00000065  0.45D-06  0.11D-06  6  1    49.70
   9      1.31264826    -0.84308401  -268.10852712    -0.00000460    -0.00000022  0.15D-06  0.35D-07  6  4    54.53
  10      1.31271161    -0.84308693  -268.10853004    -0.00000293    -0.00000005  0.35D-07  0.95D-08  6  3    59.37
  11      1.31274121    -0.84308569  -268.10852880     0.00000125    -0.00000002  0.13D-07  0.28D-08  6  5    64.19
  12      1.31275163    -0.84308543  -268.10852854     0.00000026    -0.00000000  0.26D-08  0.96D-09  6  6    69.45
  13      1.31275049    -0.84308451  -268.10852762     0.00000092    -0.00000000  0.96D-09  0.29D-09  6  2    75.91
  14      1.31274527    -0.84308367  -268.10852678     0.00000085    -0.00000000  0.21D-09  0.68D-10  6  1    82.48
  15      1.31274119    -0.84308308  -268.10852619     0.00000059    -0.00000000  0.78D-10  0.19D-10  6  4    88.85
  16      1.31273800    -0.84308270  -268.10852581     0.00000038    -0.00000000  0.28D-10  0.63D-11  6  3    95.36
  17      1.31273579    -0.84308246  -268.10852557     0.00000024    -0.00000000  0.10D-10  0.24D-11  6  5   101.83
  18      1.31273489    -0.84308240  -268.10852551     0.00000006    -0.00000000  0.41D-11  0.87D-12  6  6   108.31
  19      1.31273428    -0.84308236  -268.10852547     0.00000003    -0.00000000  0.16D-11  0.37D-12  6  2   114.60
  20      1.31273396    -0.84308235  -268.10852546     0.00000001    -0.00000000  0.60D-12  0.13D-12  6  1   120.93
  21      1.31273379    -0.84308234  -268.10852545     0.00000001    -0.00000000  0.28D-12  0.58D-13  6  4   127.25
  22      1.31273367    -0.84308233  -268.10852544     0.00000001    -0.00000000  0.74D-13  0.21D-13  6  3   133.56
  23      1.31273361    -0.84308233  -268.10852544     0.00000000    -0.00000000  0.21D-13  0.63D-14  6  5   139.86
  24      1.31273361    -0.84308233  -268.10852544    -0.00000000    -0.00000000  0.68D-14  0.23D-14  6  6   146.19
  25      1.31273361    -0.84308233  -268.10852544    -0.00000000    -0.00000000  0.21D-14  0.52D-15  6  2   152.34
  26      1.31273362    -0.84308233  -268.10852544    -0.00000000    -0.00000000  0.77D-15  0.15D-15  6  1   158.65
  27      1.31273363    -0.84308233  -268.10852544    -0.00000000    -0.00000000  0.20D-15  0.63D-16  6  3   164.81
  28      1.31273363    -0.84308233  -268.10852544    -0.00000000    -0.00000000  0.30D-16  0.11D-16  6  4   171.12
  29      1.31273363    -0.84308233  -268.10852544    -0.00000000    -0.00000000  0.71D-17  0.29D-17  6  5   177.44
  30      1.31273363    -0.84308233  -268.10852544    -0.00000000    -0.00000000  0.15D-17  0.54D-18  6  6   183.74
  31      1.31273363    -0.84308233  -268.10852544    -0.00000000    -0.00000000  0.35D-18  0.10D-18  6  2   190.05

 Norm of t1 vector:      0.13872970      S-energy:    -0.00282134      T1 diagnostic:  0.01617014
                                                                       D1 diagnostic:  0.06281573
 Norm of t2 vector:      0.54174506      P-energy:    -0.84026099
                                         Alpha-Beta:  -0.66482231
                                         Alpha-Alpha: -0.09147141
                                         Beta-Beta:   -0.08396727

 Spin contamination <S**2-Sz**2-Sz>     0.00217564

 Memory could be reduced to 28.85 Mwords without degradation in triples
 

 RESULTS
 =======

  Reference energy                   -267.265443109666
  UCCSD singles energy                 -0.002821341728
  UCCSD pair energy                    -0.840260992080
  UCCSD correlation energy             -0.843082333808
  Triples (T) contribution             -0.024970241918
  Total correlation energy             -0.868052575726
 
  RHF-UCCSD energy                   -268.108525443474
  RHF-UCCSD[T] energy                -268.134830839385
  RHF-UCCSD-T energy                 -268.133074585084
 !RHF-UCCSD(T) energy                -268.133495685392

 Program statistics:

 Available memory in ccsd:               999997692
 Min. memory needed in ccsd:               7337057
 Max. memory used in ccsd:                10523002
 Max. memory used in cckext:              10867977 (31 integral passes)
 Max. memory used in cckint:              12633073 ( 1 integral passes)



 **********************************************************************************************************************************
 DATASETS  * FILE   NREC   LENGTH (MB)   RECORD NAMES
              1      18        3.17       500      610      700      900      950      970     1000      129      960     1100   
                                          VAR    BASINP    GEOM    SYMINP    ZMAT    AOBASIS   BASIS     P2S    ABASIS      S 
                                         1400     1410     1200     1210     1080     1600     1650     1700   
                                           T        V       H0       H01     AOSYM     SMH    MOLCAS    OPER   

              2       3        0.77       700     1000     2100   
                                         GEOM     BASIS     RHF  

 PROGRAMS   *        TOTAL  UCCSD(T)       RHF       INT
 CPU TIMES  *       234.77    233.01      0.93      0.75
 REAL TIME  *       245.33 SEC
 DISK USED  *         1.29 GB      
 SF USED    *       553.73 MB      
 GA USED    *         0.00 MB       (max)       0.00 MB       (current)
 **********************************************************************************************************************************

        UCCSD(T)        RHF-SCF 
   -268.13349569   -267.26544311
 **********************************************************************************************************************************
 Variable memory released
