
Host: sapelo2-sub2.ecompute

Timers On : Fri Sep  4 13:16:11 2020
Timers Off: Fri Sep  4 13:17:18 2020

Wall Time:       66.79 seconds

                                                       Time (seconds)
Module                                       User      System        Wall        Calls

--------------------------------------------------------------------------------------

**************************************************************************************

Host: sapelo2-sub2.ecompute

Timers On : Fri Sep  4 13:19:32 2020
Timers Off: Fri Sep  4 13:34:48 2020

Wall Time:      915.80 seconds

                                                       Time (seconds)
Module                                       User      System        Wall        Calls

--------------------------------------------------------------------------------------

**************************************************************************************

Host: sapelo2-sub2.ecompute

Timers On : Tue Sep  8 11:47:12 2020
Timers Off: Tue Sep  8 11:47:13 2020

Wall Time:        1.04 seconds

                                                       Time (seconds)
Module                                       User      System        Wall        Calls

--------------------------------------------------------------------------------------

**************************************************************************************

Host: sapelo2-sub2.ecompute

Timers On : Tue Sep  8 12:15:42 2020
Timers Off: Tue Sep  8 12:24:26 2020

Wall Time:      524.38 seconds

                                                       Time (seconds)
Module                                       User      System        Wall        Calls

--------------------------------------------------------------------------------------

**************************************************************************************

Host: sapelo2-sub2.ecompute

Timers On : Tue Sep  8 13:00:36 2020
Timers Off: Tue Sep  8 13:08:15 2020

Wall Time:      459.25 seconds

                                                       Time (seconds)
Module                                       User      System        Wall        Calls

--------------------------------------------------------------------------------------

**************************************************************************************

Host: sapelo2-sub2.ecompute

Timers On : Tue Sep  8 13:13:09 2020
Timers Off: Tue Sep  8 13:13:10 2020

Wall Time:        1.04 seconds

                                                       Time (seconds)
Module                                       User      System        Wall        Calls

--------------------------------------------------------------------------------------

**************************************************************************************

Host: sapelo2-sub2.ecompute

Timers On : Tue Sep  8 13:14:05 2020
Timers Off: Tue Sep  8 13:21:44 2020

Wall Time:      459.21 seconds

                                                       Time (seconds)
Module                                       User      System        Wall        Calls

--------------------------------------------------------------------------------------

**************************************************************************************

Host: sapelo2-sub2.ecompute

Timers On : Tue Sep  8 13:25:40 2020
Timers Off: Tue Sep  8 13:33:19 2020

Wall Time:      459.15 seconds

                                                       Time (seconds)
Module                                       User      System        Wall        Calls

--------------------------------------------------------------------------------------

**************************************************************************************

Host: sapelo2-sub2.ecompute

Timers On : Tue Sep  8 13:42:26 2020
Timers Off: Tue Sep  8 13:42:27 2020

Wall Time:        1.02 seconds

                                                       Time (seconds)
Module                                       User      System        Wall        Calls

--------------------------------------------------------------------------------------

**************************************************************************************

Host: sapelo2-sub2.ecompute

Timers On : Tue Sep  8 13:43:19 2020
Timers Off: Tue Sep  8 13:43:20 2020

Wall Time:        1.09 seconds

                                                       Time (seconds)
Module                                       User      System        Wall        Calls

--------------------------------------------------------------------------------------

**************************************************************************************

Host: sapelo2-sub2.ecompute

Timers On : Tue Sep  8 13:43:40 2020
Timers Off: Tue Sep  8 13:43:41 2020

Wall Time:        1.19 seconds

                                                       Time (seconds)
Module                                       User      System        Wall        Calls

--------------------------------------------------------------------------------------

**************************************************************************************

Host: sapelo2-sub2.ecompute

Timers On : Tue Sep  8 13:44:24 2020
Timers Off: Tue Sep  8 13:44:25 2020

Wall Time:        0.95 seconds

                                                       Time (seconds)
Module                                       User      System        Wall        Calls

--------------------------------------------------------------------------------------

**************************************************************************************

Host: sapelo2-sub2.ecompute

Timers On : Tue Sep  8 13:44:47 2020
Timers Off: Tue Sep  8 13:52:26 2020

Wall Time:      458.57 seconds

                                                       Time (seconds)
Module                                       User      System        Wall        Calls

--------------------------------------------------------------------------------------

**************************************************************************************

Host: sapelo2-sub2.ecompute

Timers On : Tue Sep  8 14:40:55 2020
Timers Off: Tue Sep  8 14:40:57 2020

Wall Time:        1.63 seconds

                                                       Time (seconds)
Module                                       User      System        Wall        Calls

--------------------------------------------------------------------------------------

**************************************************************************************

Host: sapelo2-sub2.ecompute

Timers On : Tue Sep  8 14:42:42 2020
Timers Off: Tue Sep  8 14:42:50 2020

Wall Time:        7.59 seconds

                                                       Time (seconds)
Module                                       User      System        Wall        Calls

--------------------------------------------------------------------------------------

**************************************************************************************

Host: sapelo2-sub2.ecompute

Timers On : Tue Sep  8 14:48:10 2020
Timers Off: Tue Sep  8 14:48:18 2020

Wall Time:        7.80 seconds

                                                       Time (seconds)
Module                                       User      System        Wall        Calls

--------------------------------------------------------------------------------------

**************************************************************************************

Host: sapelo2-sub2.ecompute

Timers On : Tue Sep  8 14:49:18 2020
Timers Off: Tue Sep  8 14:49:26 2020

Wall Time:        7.62 seconds

                                                       Time (seconds)
Module                                       User      System        Wall        Calls

--------------------------------------------------------------------------------------

**************************************************************************************

Host: sapelo2-sub2.ecompute

Timers On : Tue Sep  8 14:50:37 2020
Timers Off: Tue Sep  8 14:50:39 2020

Wall Time:        1.17 seconds

                                                       Time (seconds)
Module                                       User      System        Wall        Calls

--------------------------------------------------------------------------------------

**************************************************************************************

Host: sapelo2-sub2.ecompute

Timers On : Tue Sep  8 14:51:35 2020
Timers Off: Tue Sep  8 15:02:35 2020

Wall Time:      659.98 seconds

                                                       Time (seconds)
Module                                       User      System        Wall        Calls

--------------------------------------------------------------------------------------

**************************************************************************************

Host: sapelo2-sub2.ecompute

Timers On : Tue Sep  8 16:05:41 2020
Timers Off: Tue Sep  8 16:05:42 2020

Wall Time:        0.97 seconds

                                                       Time (seconds)
Module                                       User      System        Wall        Calls

--------------------------------------------------------------------------------------

**************************************************************************************

Host: sapelo2-sub2.ecompute

Timers On : Tue Sep  8 16:06:14 2020
Timers Off: Tue Sep  8 16:06:15 2020

Wall Time:        0.85 seconds

                                                       Time (seconds)
Module                                       User      System        Wall        Calls

--------------------------------------------------------------------------------------

**************************************************************************************

Host: sapelo2-sub2.ecompute

Timers On : Tue Sep  8 16:07:38 2020
Timers Off: Tue Sep  8 16:07:39 2020

Wall Time:        0.99 seconds

                                                       Time (seconds)
Module                                       User      System        Wall        Calls

--------------------------------------------------------------------------------------

**************************************************************************************

Host: sapelo2-sub2.ecompute

Timers On : Tue Sep  8 16:08:33 2020
Timers Off: Tue Sep  8 16:08:33 2020

Wall Time:        0.81 seconds

                                                       Time (seconds)
Module                                       User      System        Wall        Calls

--------------------------------------------------------------------------------------

**************************************************************************************

Host: sapelo2-sub2.ecompute

Timers On : Tue Sep  8 16:09:17 2020
Timers Off: Tue Sep  8 16:10:24 2020

Wall Time:       67.62 seconds

                                                       Time (seconds)
Module                                       User      System        Wall        Calls

--------------------------------------------------------------------------------------

**************************************************************************************

Host: sapelo2-sub2.ecompute

Timers On : Tue Sep  8 16:11:26 2020
Timers Off: Tue Sep  8 16:11:27 2020

Wall Time:        1.04 seconds

                                                       Time (seconds)
Module                                       User      System        Wall        Calls

--------------------------------------------------------------------------------------

**************************************************************************************

Host: sapelo2-sub2.ecompute

Timers On : Tue Sep  8 16:11:50 2020
Timers Off: Tue Sep  8 16:11:51 2020

Wall Time:        0.85 seconds

                                                       Time (seconds)
Module                                       User      System        Wall        Calls

--------------------------------------------------------------------------------------

**************************************************************************************

Host: sapelo2-sub2.ecompute

Timers On : Tue Sep  8 16:12:30 2020
Timers Off: Tue Sep  8 16:12:31 2020

Wall Time:        0.90 seconds

                                                       Time (seconds)
Module                                       User      System        Wall        Calls

--------------------------------------------------------------------------------------

**************************************************************************************

Host: sapelo2-sub2.ecompute

Timers On : Tue Sep  8 17:12:37 2020
Timers Off: Tue Sep  8 17:13:44 2020

Wall Time:       67.60 seconds

                                                       Time (seconds)
Module                                       User      System        Wall        Calls

--------------------------------------------------------------------------------------

**************************************************************************************

Host: sapelo2-sub2.ecompute

Timers On : Tue Sep  8 17:15:40 2020
Timers Off: Tue Sep  8 17:16:47 2020

Wall Time:       66.65 seconds

                                                       Time (seconds)
Module                                       User      System        Wall        Calls

--------------------------------------------------------------------------------------

**************************************************************************************

Host: sapelo2-sub5.ecompute

Timers On : Wed Sep  9 10:07:46 2020
Timers Off: Wed Sep  9 10:08:53 2020

Wall Time:       66.69 seconds

                                                       Time (seconds)
Module                                       User      System        Wall        Calls

--------------------------------------------------------------------------------------

**************************************************************************************

Host: sapelo2-sub5.ecompute

Timers On : Wed Sep  9 10:24:28 2020
Timers Off: Wed Sep  9 10:24:29 2020

Wall Time:        1.00 seconds

                                                       Time (seconds)
Module                                       User      System        Wall        Calls

--------------------------------------------------------------------------------------

**************************************************************************************

Host: sapelo2-sub5.ecompute

Timers On : Wed Sep  9 10:25:45 2020
Timers Off: Wed Sep  9 10:25:46 2020

Wall Time:        1.05 seconds

                                                       Time (seconds)
Module                                       User      System        Wall        Calls

--------------------------------------------------------------------------------------

**************************************************************************************

Host: sapelo2-sub5.ecompute

Timers On : Wed Sep  9 10:26:29 2020
Timers Off: Wed Sep  9 10:27:36 2020

Wall Time:       66.16 seconds

                                                       Time (seconds)
Module                                       User      System        Wall        Calls

--------------------------------------------------------------------------------------

**************************************************************************************

Host: sapelo2-sub5.ecompute

Timers On : Wed Sep  9 10:36:31 2020
Timers Off: Wed Sep  9 10:37:37 2020

Wall Time:       66.33 seconds

                                                       Time (seconds)
Module                                       User      System        Wall        Calls

--------------------------------------------------------------------------------------

**************************************************************************************

Host: sapelo2-sub5.ecompute

Timers On : Wed Sep  9 10:40:08 2020
Timers Off: Wed Sep  9 10:40:29 2020

Wall Time:       21.19 seconds

                                                       Time (seconds)
Module                                       User      System        Wall        Calls

--------------------------------------------------------------------------------------

**************************************************************************************

Host: sapelo2-sub5.ecompute

Timers On : Wed Sep  9 10:43:35 2020
Timers Off: Wed Sep  9 10:45:02 2020

Wall Time:       86.26 seconds

                                                       Time (seconds)
Module                                       User      System        Wall        Calls

--------------------------------------------------------------------------------------

**************************************************************************************

Host: sapelo2-sub5.ecompute

Timers On : Wed Sep  9 10:54:13 2020
Timers Off: Wed Sep  9 10:54:14 2020

Wall Time:        0.81 seconds

                                                       Time (seconds)
Module                                       User      System        Wall        Calls

--------------------------------------------------------------------------------------

**************************************************************************************

Host: sapelo2-sub5.ecompute

Timers On : Wed Sep  9 10:54:51 2020
Timers Off: Wed Sep  9 10:58:07 2020

Wall Time:      196.61 seconds

                                                       Time (seconds)
Module                                       User      System        Wall        Calls

--------------------------------------------------------------------------------------

**************************************************************************************

Host: sapelo2-sub5.ecompute

Timers On : Wed Sep  9 11:14:54 2020
Timers Off: Wed Sep  9 11:26:48 2020

Wall Time:      713.72 seconds

                                                       Time (seconds)
Module                                       User      System        Wall        Calls

--------------------------------------------------------------------------------------

**************************************************************************************

Host: sapelo2-sub5.ecompute

Timers On : Wed Sep  9 12:29:19 2020
Timers Off: Wed Sep  9 12:40:08 2020

Wall Time:      648.83 seconds

                                                       Time (seconds)
Module                                       User      System        Wall        Calls

--------------------------------------------------------------------------------------

**************************************************************************************

Host: sapelo2-sub5.ecompute

Timers On : Wed Sep  9 12:46:51 2020
Timers Off: Wed Sep  9 12:54:29 2020

Wall Time:      457.86 seconds

                                                       Time (seconds)
Module                                       User      System        Wall        Calls

--------------------------------------------------------------------------------------

**************************************************************************************

Host: sapelo2-sub5.ecompute

Timers On : Wed Sep  9 13:01:57 2020
Timers Off: Wed Sep  9 13:03:04 2020

Wall Time:       66.63 seconds

                                                       Time (seconds)
Module                                       User      System        Wall        Calls

--------------------------------------------------------------------------------------

**************************************************************************************

Host: sapelo2-sub5.ecompute

Timers On : Wed Sep  9 13:04:28 2020
Timers Off: Wed Sep  9 13:07:45 2020

Wall Time:      196.98 seconds

                                                       Time (seconds)
Module                                       User      System        Wall        Calls

--------------------------------------------------------------------------------------

**************************************************************************************

Host: sapelo2-sub5.ecompute

Timers On : Wed Sep  9 13:15:06 2020
Timers Off: Wed Sep  9 13:40:02 2020

Wall Time:     1496.88 seconds

                                                       Time (seconds)
Module                                       User      System        Wall        Calls

--------------------------------------------------------------------------------------

**************************************************************************************

Host: sapelo2-sub5.ecompute

Timers On : Wed Sep  9 13:46:36 2020
Timers Off: Wed Sep  9 13:58:35 2020

Wall Time:      718.94 seconds

                                                       Time (seconds)
Module                                       User      System        Wall        Calls

--------------------------------------------------------------------------------------

**************************************************************************************

Host: sapelo2-sub5.ecompute

Timers On : Wed Sep  9 14:05:23 2020
Timers Off: Wed Sep  9 14:31:25 2020

Wall Time:     1561.77 seconds

                                                       Time (seconds)
Module                                       User      System        Wall        Calls

--------------------------------------------------------------------------------------

**************************************************************************************

Host: sapelo2-sub5.ecompute

Timers On : Thu Sep 10 16:17:25 2020
Timers Off: Thu Sep 10 16:17:26 2020

Wall Time:        1.03 seconds

                                                       Time (seconds)
Module                                       User      System        Wall        Calls

--------------------------------------------------------------------------------------

**************************************************************************************

Host: sapelo2-sub5.ecompute

Timers On : Thu Sep 10 16:18:03 2020
Timers Off: Thu Sep 10 16:19:09 2020

Wall Time:       66.14 seconds

                                                       Time (seconds)
Module                                       User      System        Wall        Calls

--------------------------------------------------------------------------------------

**************************************************************************************

Host: sapelo2-sub2.ecompute

Timers On : Mon Sep 14 15:12:05 2020
Timers Off: Mon Sep 14 15:22:58 2020

Wall Time:      653.66 seconds

                                                       Time (seconds)
Module                                       User      System        Wall        Calls

--------------------------------------------------------------------------------------

**************************************************************************************

Host: sapelo2-sub2.ecompute

Timers On : Mon Sep 14 15:27:37 2020
Timers Off: Mon Sep 14 15:42:53 2020

Wall Time:      916.01 seconds

                                                       Time (seconds)
Module                                       User      System        Wall        Calls

--------------------------------------------------------------------------------------

**************************************************************************************

Host: sapelo2-sub2.ecompute

Timers On : Mon Sep 14 15:52:21 2020
Timers Off: Mon Sep 14 16:10:43 2020

Wall Time:     1102.61 seconds

                                                       Time (seconds)
Module                                       User      System        Wall        Calls

--------------------------------------------------------------------------------------

**************************************************************************************

Host: sapelo2-sub2.ecompute

Timers On : Mon Sep 14 16:17:35 2020
Timers Off: Mon Sep 14 16:27:21 2020

Wall Time:      585.25 seconds

                                                       Time (seconds)
Module                                       User      System        Wall        Calls

--------------------------------------------------------------------------------------

**************************************************************************************

Host: ss-sub1.gacrc.uga.edu

Timers On : Tue Sep 15 15:22:00 2020
Timers Off: Tue Sep 15 15:22:05 2020

Wall Time:        4.86 seconds

                                                       Time (seconds)
Module                                       User      System        Wall        Calls

--------------------------------------------------------------------------------------

**************************************************************************************

Host: ss-sub1.gacrc.uga.edu

Timers On : Tue Sep 15 15:30:30 2020
Timers Off: Tue Sep 15 15:30:31 2020

Wall Time:        1.76 seconds

                                                       Time (seconds)
Module                                       User      System        Wall        Calls

--------------------------------------------------------------------------------------

**************************************************************************************

Host: ss-sub1.gacrc.uga.edu

Timers On : Tue Sep 15 15:30:59 2020
Timers Off: Tue Sep 15 15:31:01 2020

Wall Time:        1.49 seconds

                                                       Time (seconds)
Module                                       User      System        Wall        Calls

--------------------------------------------------------------------------------------

**************************************************************************************

Host: ss-sub1.gacrc.uga.edu

Timers On : Tue Sep 15 15:38:08 2020
Timers Off: Tue Sep 15 15:38:26 2020

Wall Time:       17.41 seconds

                                                       Time (seconds)
Module                                       User      System        Wall        Calls

--------------------------------------------------------------------------------------

**************************************************************************************

Host: ss-sub1.gacrc.uga.edu

Timers On : Tue Sep 15 16:05:56 2020
Timers Off: Tue Sep 15 16:05:58 2020

Wall Time:        1.17 seconds

                                                       Time (seconds)
Module                                       User      System        Wall        Calls

--------------------------------------------------------------------------------------

**************************************************************************************

Host: ss-sub1.gacrc.uga.edu

Timers On : Tue Sep 15 16:16:28 2020
Timers Off: Tue Sep 15 16:16:30 2020

Wall Time:        1.56 seconds

                                                       Time (seconds)
Module                                       User      System        Wall        Calls

--------------------------------------------------------------------------------------

**************************************************************************************

Host: ss-sub1.gacrc.uga.edu

Timers On : Tue Sep 15 16:32:17 2020
Timers Off: Tue Sep 15 16:32:24 2020

Wall Time:        6.79 seconds

                                                       Time (seconds)
Module                                       User      System        Wall        Calls

--------------------------------------------------------------------------------------

**************************************************************************************

Host: ss-sub1.gacrc.uga.edu

Timers On : Tue Sep 15 17:02:02 2020
Timers Off: Tue Sep 15 17:02:09 2020

Wall Time:        6.80 seconds

                                                       Time (seconds)
Module                                       User      System        Wall        Calls

--------------------------------------------------------------------------------------

**************************************************************************************

Host: ss-sub2.gacrc.uga.edu

Timers On : Wed Sep 16 10:15:44 2020
Timers Off: Wed Sep 16 10:15:58 2020

Wall Time:       14.41 seconds

                                                       Time (seconds)
Module                                       User      System        Wall        Calls

--------------------------------------------------------------------------------------

**************************************************************************************

Host: ss-sub2.gacrc.uga.edu

Timers On : Wed Sep 16 10:17:51 2020
Timers Off: Wed Sep 16 10:18:03 2020

Wall Time:       12.12 seconds

                                                       Time (seconds)
Module                                       User      System        Wall        Calls

--------------------------------------------------------------------------------------

**************************************************************************************

Host: ss-sub2.gacrc.uga.edu

Timers On : Wed Sep 16 15:26:41 2020
Timers Off: Wed Sep 16 15:26:42 2020

Wall Time:        1.49 seconds

                                                       Time (seconds)
Module                                       User      System        Wall        Calls

--------------------------------------------------------------------------------------

**************************************************************************************

Host: ss-sub2.gacrc.uga.edu

Timers On : Wed Sep 16 15:29:11 2020
Timers Off: Wed Sep 16 15:29:13 2020

Wall Time:        1.47 seconds

                                                       Time (seconds)
Module                                       User      System        Wall        Calls

--------------------------------------------------------------------------------------

**************************************************************************************

Host: ss-sub2.gacrc.uga.edu

Timers On : Wed Sep 16 15:37:52 2020
Timers Off: Wed Sep 16 15:37:54 2020

Wall Time:        1.48 seconds

                                                       Time (seconds)
Module                                       User      System        Wall        Calls

--------------------------------------------------------------------------------------

**************************************************************************************

Host: ss-sub2.gacrc.uga.edu

Timers On : Wed Sep 16 15:55:45 2020
Timers Off: Wed Sep 16 15:55:47 2020

Wall Time:        1.48 seconds

                                                       Time (seconds)
Module                                       User      System        Wall        Calls

--------------------------------------------------------------------------------------

**************************************************************************************

Host: ss-sub2.gacrc.uga.edu

Timers On : Wed Sep 16 15:59:22 2020
Timers Off: Wed Sep 16 15:59:23 2020

Wall Time:        1.48 seconds

                                                       Time (seconds)
Module                                       User      System        Wall        Calls

--------------------------------------------------------------------------------------

**************************************************************************************

Host: ss-sub2.gacrc.uga.edu

Timers On : Wed Sep 16 16:09:06 2020
Timers Off: Wed Sep 16 16:09:08 2020

Wall Time:        1.48 seconds

                                                       Time (seconds)
Module                                       User      System        Wall        Calls

--------------------------------------------------------------------------------------

**************************************************************************************

Host: ss-sub2.gacrc.uga.edu

Timers On : Wed Sep 16 16:12:38 2020
Timers Off: Wed Sep 16 16:12:39 2020

Wall Time:        1.45 seconds

                                                       Time (seconds)
Module                                       User      System        Wall        Calls

--------------------------------------------------------------------------------------

**************************************************************************************

Host: ss-sub2.gacrc.uga.edu

Timers On : Wed Sep 16 16:41:04 2020
Timers Off: Wed Sep 16 16:41:06 2020

Wall Time:        1.45 seconds

                                                       Time (seconds)
Module                                       User      System        Wall        Calls

--------------------------------------------------------------------------------------

**************************************************************************************

Host: ss-sub2.gacrc.uga.edu

Timers On : Wed Sep 16 16:42:17 2020
Timers Off: Wed Sep 16 16:42:18 2020

Wall Time:        1.48 seconds

                                                       Time (seconds)
Module                                       User      System        Wall        Calls

--------------------------------------------------------------------------------------

**************************************************************************************

Host: ss-sub2.gacrc.uga.edu

Timers On : Wed Sep 16 16:45:31 2020
Timers Off: Wed Sep 16 16:45:32 2020

Wall Time:        1.48 seconds

                                                       Time (seconds)
Module                                       User      System        Wall        Calls

--------------------------------------------------------------------------------------

**************************************************************************************

Host: ss-sub2.gacrc.uga.edu

Timers On : Wed Sep 16 16:51:30 2020
Timers Off: Wed Sep 16 16:51:32 2020

Wall Time:        1.47 seconds

                                                       Time (seconds)
Module                                       User      System        Wall        Calls

--------------------------------------------------------------------------------------

**************************************************************************************

Host: ss-sub2.gacrc.uga.edu

Timers On : Wed Sep 16 16:54:47 2020
Timers Off: Wed Sep 16 16:54:48 2020

Wall Time:        1.50 seconds

                                                       Time (seconds)
Module                                       User      System        Wall        Calls

--------------------------------------------------------------------------------------

**************************************************************************************

Host: ss-sub2.gacrc.uga.edu

Timers On : Thu Sep 17 10:01:29 2020
Timers Off: Thu Sep 17 10:01:30 2020

Wall Time:        1.54 seconds

                                                       Time (seconds)
Module                                       User      System        Wall        Calls

--------------------------------------------------------------------------------------

**************************************************************************************

Host: ss-sub2.gacrc.uga.edu

Timers On : Thu Sep 17 10:05:32 2020
Timers Off: Thu Sep 17 10:05:39 2020

Wall Time:        6.56 seconds

                                                       Time (seconds)
Module                                       User      System        Wall        Calls

--------------------------------------------------------------------------------------

**************************************************************************************

Host: ss-sub2.gacrc.uga.edu

Timers On : Thu Sep 17 10:41:05 2020
Timers Off: Thu Sep 17 10:41:12 2020

Wall Time:        6.61 seconds

                                                       Time (seconds)
Module                                       User      System        Wall        Calls

--------------------------------------------------------------------------------------

**************************************************************************************

Host: ss-sub2.gacrc.uga.edu

Timers On : Thu Sep 17 10:43:22 2020
Timers Off: Thu Sep 17 10:43:29 2020

Wall Time:        6.61 seconds

                                                       Time (seconds)
Module                                       User      System        Wall        Calls

--------------------------------------------------------------------------------------

**************************************************************************************

Host: ss-sub2.gacrc.uga.edu

Timers On : Thu Sep 17 10:44:48 2020
Timers Off: Thu Sep 17 10:44:55 2020

Wall Time:        6.62 seconds

                                                       Time (seconds)
Module                                       User      System        Wall        Calls

--------------------------------------------------------------------------------------

**************************************************************************************

Host: ss-sub2.gacrc.uga.edu

Timers On : Thu Sep 17 10:48:37 2020
Timers Off: Thu Sep 17 10:53:00 2020

Wall Time:      263.40 seconds

                                                       Time (seconds)
Module                                       User      System        Wall        Calls

--------------------------------------------------------------------------------------

**************************************************************************************

Host: ss-sub2.gacrc.uga.edu

Timers On : Thu Sep 17 13:21:00 2020
Timers Off: Thu Sep 17 13:21:12 2020

Wall Time:       11.96 seconds

                                                       Time (seconds)
Module                                       User      System        Wall        Calls

--------------------------------------------------------------------------------------

**************************************************************************************

Host: ss-sub2.gacrc.uga.edu

Timers On : Thu Sep 17 13:31:35 2020
Timers Off: Thu Sep 17 13:31:47 2020

Wall Time:       11.88 seconds

                                                       Time (seconds)
Module                                       User      System        Wall        Calls

--------------------------------------------------------------------------------------

**************************************************************************************

Host: ss-sub2.gacrc.uga.edu

Timers On : Thu Sep 17 13:33:18 2020
Timers Off: Thu Sep 17 13:33:49 2020

Wall Time:       31.80 seconds

                                                       Time (seconds)
Module                                       User      System        Wall        Calls

--------------------------------------------------------------------------------------

**************************************************************************************

Host: ss-sub2.gacrc.uga.edu

Timers On : Thu Sep 17 13:47:10 2020
Timers Off: Thu Sep 17 13:47:42 2020

Wall Time:       31.79 seconds

                                                       Time (seconds)
Module                                       User      System        Wall        Calls

--------------------------------------------------------------------------------------

**************************************************************************************

Host: ss-sub2.gacrc.uga.edu

Timers On : Thu Sep 17 13:50:40 2020
Timers Off: Thu Sep 17 13:51:12 2020

Wall Time:       31.78 seconds

                                                       Time (seconds)
Module                                       User      System        Wall        Calls

--------------------------------------------------------------------------------------

**************************************************************************************

Host: ss-sub2.gacrc.uga.edu

Timers On : Thu Sep 17 14:28:26 2020
Timers Off: Thu Sep 17 14:30:38 2020

Wall Time:      132.60 seconds

                                                       Time (seconds)
Module                                       User      System        Wall        Calls

--------------------------------------------------------------------------------------

**************************************************************************************

Host: ss-sub2.gacrc.uga.edu

Timers On : Thu Sep 17 15:12:21 2020
Timers Off: Thu Sep 17 15:14:34 2020

Wall Time:      132.89 seconds

                                                       Time (seconds)
Module                                       User      System        Wall        Calls

--------------------------------------------------------------------------------------

**************************************************************************************

Host: ss-sub2.gacrc.uga.edu

Timers On : Thu Sep 17 15:16:56 2020
Timers Off: Thu Sep 17 15:19:09 2020

Wall Time:      132.94 seconds

                                                       Time (seconds)
Module                                       User      System        Wall        Calls

--------------------------------------------------------------------------------------

**************************************************************************************

Host: ss-sub2.gacrc.uga.edu

Timers On : Thu Sep 17 15:32:14 2020
Timers Off: Thu Sep 17 15:33:21 2020

Wall Time:       66.79 seconds

                                                       Time (seconds)
Module                                       User      System        Wall        Calls

--------------------------------------------------------------------------------------

**************************************************************************************

Host: ss-sub2.gacrc.uga.edu

Timers On : Thu Sep 17 16:12:53 2020
Timers Off: Thu Sep 17 16:14:00 2020

Wall Time:       67.24 seconds

                                                       Time (seconds)
Module                                       User      System        Wall        Calls

--------------------------------------------------------------------------------------

**************************************************************************************

Host: ss-sub2.gacrc.uga.edu

Timers On : Thu Sep 17 16:15:28 2020
Timers Off: Thu Sep 17 16:27:25 2020

Wall Time:      717.49 seconds

                                                       Time (seconds)
Module                                       User      System        Wall        Calls

--------------------------------------------------------------------------------------

**************************************************************************************

Host: ss-sub2.gacrc.uga.edu

Timers On : Thu Sep 17 16:33:57 2020
Timers Off: Thu Sep 17 16:36:10 2020

Wall Time:      132.62 seconds

                                                       Time (seconds)
Module                                       User      System        Wall        Calls

--------------------------------------------------------------------------------------

**************************************************************************************

Host: ss-sub2.gacrc.uga.edu

Timers On : Thu Sep 17 16:46:51 2020
Timers Off: Thu Sep 17 16:46:52 2020

Wall Time:        0.97 seconds

                                                       Time (seconds)
Module                                       User      System        Wall        Calls

--------------------------------------------------------------------------------------

**************************************************************************************

Host: ss-sub2.gacrc.uga.edu

Timers On : Thu Sep 17 16:47:45 2020
Timers Off: Thu Sep 17 16:47:46 2020

Wall Time:        0.86 seconds

                                                       Time (seconds)
Module                                       User      System        Wall        Calls

--------------------------------------------------------------------------------------

**************************************************************************************

Host: ss-sub2.gacrc.uga.edu

Timers On : Thu Sep 17 16:26:45 2020
Timers Off: Thu Sep 17 16:50:38 2020

Wall Time:     1433.14 seconds

                                                       Time (seconds)
Module                                       User      System        Wall        Calls

--------------------------------------------------------------------------------------

**************************************************************************************

Host: ss-sub1.gacrc.uga.edu

Timers On : Thu Sep 17 17:00:10 2020
Timers Off: Thu Sep 17 17:05:44 2020

Wall Time:      334.20 seconds

                                                       Time (seconds)
Module                                       User      System        Wall        Calls

--------------------------------------------------------------------------------------

**************************************************************************************

Host: ss-sub2.gacrc.uga.edu

Timers On : Fri Sep 18 10:16:40 2020
Timers Off: Fri Sep 18 10:16:41 2020

Wall Time:        1.01 seconds

                                                       Time (seconds)
Module                                       User      System        Wall        Calls

--------------------------------------------------------------------------------------

**************************************************************************************

Host: ss-sub2.gacrc.uga.edu

Timers On : Fri Sep 18 10:17:03 2020
Timers Off: Fri Sep 18 10:17:04 2020

Wall Time:        0.86 seconds

                                                       Time (seconds)
Module                                       User      System        Wall        Calls

--------------------------------------------------------------------------------------

**************************************************************************************

Host: ss-sub2.gacrc.uga.edu

Timers On : Fri Sep 18 10:18:15 2020
Timers Off: Fri Sep 18 10:18:16 2020

Wall Time:        0.96 seconds

                                                       Time (seconds)
Module                                       User      System        Wall        Calls

--------------------------------------------------------------------------------------

**************************************************************************************

Host: ss-sub2.gacrc.uga.edu

Timers On : Fri Sep 18 10:23:00 2020
Timers Off: Fri Sep 18 10:23:01 2020

Wall Time:        0.97 seconds

                                                       Time (seconds)
Module                                       User      System        Wall        Calls

--------------------------------------------------------------------------------------

**************************************************************************************

Host: ss-sub2.gacrc.uga.edu

Timers On : Fri Sep 18 10:30:13 2020
Timers Off: Fri Sep 18 10:30:14 2020

Wall Time:        1.13 seconds

                                                       Time (seconds)
Module                                       User      System        Wall        Calls

--------------------------------------------------------------------------------------

**************************************************************************************

Host: ss-sub2.gacrc.uga.edu

Timers On : Fri Sep 18 10:35:37 2020
Timers Off: Fri Sep 18 10:35:38 2020

Wall Time:        0.84 seconds

                                                       Time (seconds)
Module                                       User      System        Wall        Calls

--------------------------------------------------------------------------------------

**************************************************************************************

Host: ss-sub1.gacrc.uga.edu

Timers On : Fri Sep 18 10:41:38 2020
Timers Off: Fri Sep 18 10:41:40 2020

Wall Time:        1.13 seconds

                                                       Time (seconds)
Module                                       User      System        Wall        Calls

--------------------------------------------------------------------------------------

**************************************************************************************

Host: ss-sub1.gacrc.uga.edu

Timers On : Fri Sep 18 10:43:24 2020
Timers Off: Fri Sep 18 10:43:25 2020

Wall Time:        0.81 seconds

                                                       Time (seconds)
Module                                       User      System        Wall        Calls

--------------------------------------------------------------------------------------

**************************************************************************************

Host: ss-sub1.gacrc.uga.edu

Timers On : Fri Sep 18 10:44:05 2020
Timers Off: Fri Sep 18 10:46:18 2020

Wall Time:      132.49 seconds

                                                       Time (seconds)
Module                                       User      System        Wall        Calls

--------------------------------------------------------------------------------------

**************************************************************************************

Host: ss-sub1.gacrc.uga.edu

Timers On : Fri Sep 18 10:50:15 2020
Timers Off: Fri Sep 18 10:50:22 2020

Wall Time:        6.42 seconds

                                                       Time (seconds)
Module                                       User      System        Wall        Calls

--------------------------------------------------------------------------------------

**************************************************************************************

Host: ss-sub1.gacrc.uga.edu

Timers On : Fri Sep 18 10:51:29 2020
Timers Off: Fri Sep 18 10:52:36 2020

Wall Time:       66.37 seconds

                                                       Time (seconds)
Module                                       User      System        Wall        Calls

--------------------------------------------------------------------------------------

**************************************************************************************

Host: ss-sub1.gacrc.uga.edu

Timers On : Fri Sep 18 10:55:19 2020
Timers Off: Fri Sep 18 11:10:31 2020

Wall Time:      912.61 seconds

                                                       Time (seconds)
Module                                       User      System        Wall        Calls

--------------------------------------------------------------------------------------

**************************************************************************************

Host: ss-sub1.gacrc.uga.edu

Timers On : Fri Sep 18 11:12:48 2020
Timers Off: Fri Sep 18 11:57:29 2020

Wall Time:     2681.71 seconds

                                                       Time (seconds)
Module                                       User      System        Wall        Calls

--------------------------------------------------------------------------------------

**************************************************************************************

Host: ss-sub1.gacrc.uga.edu

Timers On : Mon Sep 21 12:05:50 2020
Timers Off: Mon Sep 21 12:08:02 2020

Wall Time:      132.41 seconds

                                                       Time (seconds)
Module                                       User      System        Wall        Calls

--------------------------------------------------------------------------------------

**************************************************************************************

Host: ss-sub1.gacrc.uga.edu

Timers On : Mon Sep 21 12:33:38 2020
Timers Off: Mon Sep 21 12:36:51 2020

Wall Time:      192.90 seconds

                                                       Time (seconds)
Module                                       User      System        Wall        Calls

--------------------------------------------------------------------------------------

**************************************************************************************

Host: ss-sub1.gacrc.uga.edu

Timers On : Mon Sep 21 12:39:53 2020
Timers Off: Mon Sep 21 12:44:11 2020

Wall Time:      258.39 seconds

                                                       Time (seconds)
Module                                       User      System        Wall        Calls

--------------------------------------------------------------------------------------

**************************************************************************************

Host: ss-sub1.gacrc.uga.edu

Timers On : Mon Sep 21 12:46:35 2020
Timers Off: Mon Sep 21 12:46:36 2020

Wall Time:        0.95 seconds

                                                       Time (seconds)
Module                                       User      System        Wall        Calls

--------------------------------------------------------------------------------------

**************************************************************************************

Host: ss-sub1.gacrc.uga.edu

Timers On : Mon Sep 21 12:48:31 2020
Timers Off: Mon Sep 21 12:50:44 2020

Wall Time:      132.39 seconds

                                                       Time (seconds)
Module                                       User      System        Wall        Calls

--------------------------------------------------------------------------------------

**************************************************************************************

Host: ss-sub1.gacrc.uga.edu

Timers On : Mon Sep 21 12:57:23 2020
Timers Off: Mon Sep 21 12:59:36 2020

Wall Time:      132.45 seconds

                                                       Time (seconds)
Module                                       User      System        Wall        Calls

--------------------------------------------------------------------------------------

**************************************************************************************

Host: ss-sub1.gacrc.uga.edu

Timers On : Mon Sep 21 13:08:12 2020
Timers Off: Mon Sep 21 13:08:13 2020

Wall Time:        1.17 seconds

                                                       Time (seconds)
Module                                       User      System        Wall        Calls

--------------------------------------------------------------------------------------

**************************************************************************************

Host: ss-sub1.gacrc.uga.edu

Timers On : Mon Sep 21 13:10:16 2020
Timers Off: Mon Sep 21 13:12:28 2020

Wall Time:      132.38 seconds

                                                       Time (seconds)
Module                                       User      System        Wall        Calls

--------------------------------------------------------------------------------------

**************************************************************************************

Host: ss-sub1.gacrc.uga.edu

Timers On : Mon Sep 21 13:31:12 2020
Timers Off: Mon Sep 21 13:32:19 2020

Wall Time:       67.07 seconds

                                                       Time (seconds)
Module                                       User      System        Wall        Calls

--------------------------------------------------------------------------------------

**************************************************************************************

Host: ss-sub1.gacrc.uga.edu

Timers On : Mon Sep 21 13:35:51 2020
Timers Off: Mon Sep 21 13:53:25 2020

Wall Time:     1053.34 seconds

                                                       Time (seconds)
Module                                       User      System        Wall        Calls

--------------------------------------------------------------------------------------

**************************************************************************************

Host: ss-sub1.gacrc.uga.edu

Timers On : Mon Sep 21 15:05:17 2020
Timers Off: Mon Sep 21 15:05:24 2020

Wall Time:        6.75 seconds

                                                       Time (seconds)
Module                                       User      System        Wall        Calls

--------------------------------------------------------------------------------------

**************************************************************************************

Host: ss-sub1.gacrc.uga.edu

Timers On : Mon Sep 21 15:14:49 2020
Timers Off: Mon Sep 21 15:19:18 2020

Wall Time:      269.29 seconds

                                                       Time (seconds)
Module                                       User      System        Wall        Calls

--------------------------------------------------------------------------------------

**************************************************************************************

Host: ss-sub1.gacrc.uga.edu

Timers On : Mon Sep 21 15:24:47 2020
Timers Off: Mon Sep 21 15:33:38 2020

Wall Time:      530.88 seconds

                                                       Time (seconds)
Module                                       User      System        Wall        Calls

--------------------------------------------------------------------------------------

**************************************************************************************

Host: ss-sub1.gacrc.uga.edu

Timers On : Mon Sep 21 15:39:45 2020
Timers Off: Mon Sep 21 16:12:16 2020

Wall Time:     1950.84 seconds

                                                       Time (seconds)
Module                                       User      System        Wall        Calls

--------------------------------------------------------------------------------------

**************************************************************************************

Host: sapelo2-sub2.ecompute

Timers On : Tue Sep 22 14:15:42 2020
Timers Off: Tue Sep 22 14:15:43 2020

Wall Time:        1.04 seconds

                                                       Time (seconds)
Module                                       User      System        Wall        Calls

--------------------------------------------------------------------------------------

**************************************************************************************

Host: sapelo2-sub2.ecompute

Timers On : Tue Sep 22 14:15:55 2020
Timers Off: Tue Sep 22 14:15:57 2020

Wall Time:        1.08 seconds

                                                       Time (seconds)
Module                                       User      System        Wall        Calls

--------------------------------------------------------------------------------------

**************************************************************************************

Host: sapelo2-sub2.ecompute

Timers On : Tue Sep 22 14:16:13 2020
Timers Off: Tue Sep 22 14:16:14 2020

Wall Time:        0.93 seconds

                                                       Time (seconds)
Module                                       User      System        Wall        Calls

--------------------------------------------------------------------------------------

**************************************************************************************

Host: sapelo2-sub2.ecompute

Timers On : Tue Sep 22 14:16:51 2020
Timers Off: Tue Sep 22 14:16:53 2020

Wall Time:        1.61 seconds

                                                       Time (seconds)
Module                                       User      System        Wall        Calls

--------------------------------------------------------------------------------------

**************************************************************************************

Host: sapelo2-sub2.ecompute

Timers On : Tue Sep 22 14:18:06 2020
Timers Off: Tue Sep 22 14:18:08 2020

Wall Time:        1.71 seconds

                                                       Time (seconds)
Module                                       User      System        Wall        Calls

--------------------------------------------------------------------------------------

**************************************************************************************

Host: sapelo2-sub2.ecompute

Timers On : Tue Sep 22 14:18:39 2020
Timers Off: Tue Sep 22 14:18:41 2020

Wall Time:        1.48 seconds

                                                       Time (seconds)
Module                                       User      System        Wall        Calls

--------------------------------------------------------------------------------------

**************************************************************************************

Host: sapelo2-sub2.ecompute

Timers On : Tue Sep 22 14:18:59 2020
Timers Off: Tue Sep 22 14:19:00 2020

Wall Time:        1.24 seconds

                                                       Time (seconds)
Module                                       User      System        Wall        Calls

--------------------------------------------------------------------------------------

**************************************************************************************

Host: sapelo2-sub2.ecompute

Timers On : Tue Sep 22 14:23:47 2020
Timers Off: Tue Sep 22 14:23:48 2020

Wall Time:        1.23 seconds

                                                       Time (seconds)
Module                                       User      System        Wall        Calls

--------------------------------------------------------------------------------------

**************************************************************************************

Host: sapelo2-sub2.ecompute

Timers On : Tue Sep 22 14:24:45 2020
Timers Off: Tue Sep 22 14:24:46 2020

Wall Time:        1.11 seconds

                                                       Time (seconds)
Module                                       User      System        Wall        Calls

--------------------------------------------------------------------------------------

**************************************************************************************

Host: sapelo2-sub2.ecompute

Timers On : Tue Sep 22 14:25:00 2020
Timers Off: Tue Sep 22 14:25:02 2020

Wall Time:        1.47 seconds

                                                       Time (seconds)
Module                                       User      System        Wall        Calls

--------------------------------------------------------------------------------------

**************************************************************************************

Host: sapelo2-sub2.ecompute

Timers On : Tue Sep 22 14:25:53 2020
Timers Off: Tue Sep 22 14:25:54 2020

Wall Time:        1.21 seconds

                                                       Time (seconds)
Module                                       User      System        Wall        Calls

--------------------------------------------------------------------------------------

**************************************************************************************

Host: sapelo2-sub2.ecompute

Timers On : Tue Sep 22 14:27:26 2020
Timers Off: Tue Sep 22 14:27:27 2020

Wall Time:        1.15 seconds

                                                       Time (seconds)
Module                                       User      System        Wall        Calls

--------------------------------------------------------------------------------------

**************************************************************************************

Host: sapelo2-sub2.ecompute

Timers On : Tue Sep 22 14:27:54 2020
Timers Off: Tue Sep 22 14:27:55 2020

Wall Time:        1.25 seconds

                                                       Time (seconds)
Module                                       User      System        Wall        Calls

--------------------------------------------------------------------------------------

**************************************************************************************

Host: sapelo2-sub2.ecompute

Timers On : Tue Sep 22 14:28:12 2020
Timers Off: Tue Sep 22 14:28:14 2020

Wall Time:        1.13 seconds

                                                       Time (seconds)
Module                                       User      System        Wall        Calls

--------------------------------------------------------------------------------------

**************************************************************************************

Host: sapelo2-sub2.ecompute

Timers On : Tue Sep 22 14:29:35 2020
Timers Off: Tue Sep 22 14:29:37 2020

Wall Time:        1.48 seconds

                                                       Time (seconds)
Module                                       User      System        Wall        Calls

--------------------------------------------------------------------------------------

**************************************************************************************

Host: sapelo2-sub2.ecompute

Timers On : Tue Sep 22 14:29:59 2020
Timers Off: Tue Sep 22 14:30:00 2020

Wall Time:        1.13 seconds

                                                       Time (seconds)
Module                                       User      System        Wall        Calls

--------------------------------------------------------------------------------------

**************************************************************************************

Host: sapelo2-sub2.ecompute

Timers On : Tue Sep 22 14:30:46 2020
Timers Off: Tue Sep 22 14:30:47 2020

Wall Time:        1.23 seconds

                                                       Time (seconds)
Module                                       User      System        Wall        Calls

--------------------------------------------------------------------------------------

**************************************************************************************

Host: sapelo2-sub2.ecompute

Timers On : Tue Sep 22 14:31:25 2020
Timers Off: Tue Sep 22 14:31:26 2020

Wall Time:        1.23 seconds

                                                       Time (seconds)
Module                                       User      System        Wall        Calls

--------------------------------------------------------------------------------------

**************************************************************************************

Host: sapelo2-sub2.ecompute

Timers On : Tue Sep 22 14:33:12 2020
Timers Off: Tue Sep 22 14:33:13 2020

Wall Time:        1.52 seconds

                                                       Time (seconds)
Module                                       User      System        Wall        Calls

--------------------------------------------------------------------------------------

**************************************************************************************

Host: sapelo2-sub2.ecompute

Timers On : Tue Sep 22 14:36:35 2020
Timers Off: Tue Sep 22 14:36:36 2020

Wall Time:        1.40 seconds

                                                       Time (seconds)
Module                                       User      System        Wall        Calls

--------------------------------------------------------------------------------------

**************************************************************************************

Host: sapelo2-sub2.ecompute

Timers On : Tue Sep 22 14:39:20 2020
Timers Off: Tue Sep 22 14:39:21 2020

Wall Time:        1.27 seconds

                                                       Time (seconds)
Module                                       User      System        Wall        Calls

--------------------------------------------------------------------------------------

**************************************************************************************

Host: sapelo2-sub2.ecompute

Timers On : Tue Sep 22 14:42:58 2020
Timers Off: Tue Sep 22 14:42:59 2020

Wall Time:        1.30 seconds

                                                       Time (seconds)
Module                                       User      System        Wall        Calls

--------------------------------------------------------------------------------------

**************************************************************************************

Host: sapelo2-sub2.ecompute

Timers On : Tue Sep 22 14:43:33 2020
Timers Off: Tue Sep 22 14:43:34 2020

Wall Time:        1.28 seconds

                                                       Time (seconds)
Module                                       User      System        Wall        Calls

--------------------------------------------------------------------------------------

**************************************************************************************

Host: sapelo2-sub2.ecompute

Timers On : Tue Sep 22 14:47:33 2020
Timers Off: Tue Sep 22 14:47:35 2020

Wall Time:        1.42 seconds

                                                       Time (seconds)
Module                                       User      System        Wall        Calls

--------------------------------------------------------------------------------------

**************************************************************************************

Host: sapelo2-sub2.ecompute

Timers On : Tue Sep 22 14:47:55 2020
Timers Off: Tue Sep 22 14:47:56 2020

Wall Time:        1.21 seconds

                                                       Time (seconds)
Module                                       User      System        Wall        Calls

--------------------------------------------------------------------------------------

**************************************************************************************

Host: sapelo2-sub2.ecompute

Timers On : Tue Sep 22 14:48:21 2020
Timers Off: Tue Sep 22 14:48:22 2020

Wall Time:        1.35 seconds

                                                       Time (seconds)
Module                                       User      System        Wall        Calls

--------------------------------------------------------------------------------------

**************************************************************************************

Host: sapelo2-sub2.ecompute

Timers On : Tue Sep 22 14:49:30 2020
Timers Off: Tue Sep 22 14:49:32 2020

Wall Time:        1.43 seconds

                                                       Time (seconds)
Module                                       User      System        Wall        Calls

--------------------------------------------------------------------------------------

**************************************************************************************

Host: sapelo2-sub2.ecompute

Timers On : Tue Sep 22 14:51:04 2020
Timers Off: Tue Sep 22 14:51:06 2020

Wall Time:        1.58 seconds

                                                       Time (seconds)
Module                                       User      System        Wall        Calls

--------------------------------------------------------------------------------------

**************************************************************************************

Host: sapelo2-sub2.ecompute

Timers On : Tue Sep 22 15:03:11 2020
Timers Off: Tue Sep 22 15:03:13 2020

Wall Time:        1.50 seconds

                                                       Time (seconds)
Module                                       User      System        Wall        Calls

--------------------------------------------------------------------------------------

**************************************************************************************

Host: sapelo2-sub2.ecompute

Timers On : Tue Sep 22 16:09:13 2020
Timers Off: Tue Sep 22 16:09:14 2020

Wall Time:        1.13 seconds

                                                       Time (seconds)
Module                                       User      System        Wall        Calls

--------------------------------------------------------------------------------------

**************************************************************************************

Host: sapelo2-sub2.ecompute

Timers On : Tue Sep 22 16:09:27 2020
Timers Off: Tue Sep 22 16:09:28 2020

Wall Time:        0.98 seconds

                                                       Time (seconds)
Module                                       User      System        Wall        Calls

--------------------------------------------------------------------------------------

**************************************************************************************

Host: sapelo2-sub2.ecompute

Timers On : Tue Sep 22 16:09:51 2020
Timers Off: Tue Sep 22 16:09:52 2020

Wall Time:        1.02 seconds

                                                       Time (seconds)
Module                                       User      System        Wall        Calls

--------------------------------------------------------------------------------------

**************************************************************************************

Host: sapelo2-sub2.ecompute

Timers On : Tue Sep 22 16:10:24 2020
Timers Off: Tue Sep 22 16:10:25 2020

Wall Time:        1.12 seconds

                                                       Time (seconds)
Module                                       User      System        Wall        Calls

--------------------------------------------------------------------------------------

**************************************************************************************

Host: sapelo2-sub2.ecompute

Timers On : Tue Sep 22 16:10:41 2020
Timers Off: Tue Sep 22 16:10:42 2020

Wall Time:        1.04 seconds

                                                       Time (seconds)
Module                                       User      System        Wall        Calls

--------------------------------------------------------------------------------------

**************************************************************************************

Host: sapelo2-sub2.ecompute

Timers On : Tue Sep 22 16:11:36 2020
Timers Off: Tue Sep 22 16:11:37 2020

Wall Time:        1.12 seconds

                                                       Time (seconds)
Module                                       User      System        Wall        Calls

--------------------------------------------------------------------------------------

**************************************************************************************

Host: sapelo2-sub2.ecompute

Timers On : Tue Sep 22 16:12:05 2020
Timers Off: Tue Sep 22 16:12:06 2020

Wall Time:        1.18 seconds

                                                       Time (seconds)
Module                                       User      System        Wall        Calls

--------------------------------------------------------------------------------------

**************************************************************************************

Host: sapelo2-sub2.ecompute

Timers On : Tue Sep 22 16:12:31 2020
Timers Off: Tue Sep 22 16:12:32 2020

Wall Time:        1.03 seconds

                                                       Time (seconds)
Module                                       User      System        Wall        Calls

--------------------------------------------------------------------------------------

**************************************************************************************

Host: sapelo2-sub2.ecompute

Timers On : Tue Sep 22 16:12:45 2020
Timers Off: Tue Sep 22 16:12:46 2020

Wall Time:        0.94 seconds

                                                       Time (seconds)
Module                                       User      System        Wall        Calls

--------------------------------------------------------------------------------------

**************************************************************************************

Host: sapelo2-sub2.ecompute

Timers On : Tue Sep 22 16:13:14 2020
Timers Off: Tue Sep 22 16:13:15 2020

Wall Time:        1.03 seconds

                                                       Time (seconds)
Module                                       User      System        Wall        Calls

--------------------------------------------------------------------------------------

**************************************************************************************

Host: sapelo2-sub2.ecompute

Timers On : Tue Sep 22 16:13:28 2020
Timers Off: Tue Sep 22 16:13:30 2020

Wall Time:        1.28 seconds

                                                       Time (seconds)
Module                                       User      System        Wall        Calls

--------------------------------------------------------------------------------------

**************************************************************************************

Host: sapelo2-sub2.ecompute

Timers On : Tue Sep 22 16:13:44 2020
Timers Off: Tue Sep 22 16:13:46 2020

Wall Time:        1.36 seconds

                                                       Time (seconds)
Module                                       User      System        Wall        Calls

--------------------------------------------------------------------------------------

**************************************************************************************

Host: sapelo2-sub2.ecompute

Timers On : Tue Sep 22 16:14:32 2020
Timers Off: Tue Sep 22 16:14:33 2020

Wall Time:        1.30 seconds

                                                       Time (seconds)
Module                                       User      System        Wall        Calls

--------------------------------------------------------------------------------------

**************************************************************************************

Host: sapelo2-sub2.ecompute

Timers On : Tue Sep 22 16:14:53 2020
Timers Off: Tue Sep 22 16:14:54 2020

Wall Time:        1.32 seconds

                                                       Time (seconds)
Module                                       User      System        Wall        Calls

--------------------------------------------------------------------------------------

**************************************************************************************

Host: sapelo2-sub2.ecompute

Timers On : Tue Sep 22 16:17:10 2020
Timers Off: Tue Sep 22 16:17:11 2020

Wall Time:        1.52 seconds

                                                       Time (seconds)
Module                                       User      System        Wall        Calls

--------------------------------------------------------------------------------------

**************************************************************************************

Host: sapelo2-sub2.ecompute

Timers On : Tue Sep 22 16:18:25 2020
Timers Off: Tue Sep 22 16:18:26 2020

Wall Time:        1.19 seconds

                                                       Time (seconds)
Module                                       User      System        Wall        Calls

--------------------------------------------------------------------------------------

**************************************************************************************

Host: sapelo2-sub2.ecompute

Timers On : Tue Sep 22 16:18:37 2020
Timers Off: Tue Sep 22 16:18:38 2020

Wall Time:        1.02 seconds

                                                       Time (seconds)
Module                                       User      System        Wall        Calls

--------------------------------------------------------------------------------------

**************************************************************************************

Host: sapelo2-sub2.ecompute

Timers On : Tue Sep 22 16:18:47 2020
Timers Off: Tue Sep 22 16:18:48 2020

Wall Time:        1.31 seconds

                                                       Time (seconds)
Module                                       User      System        Wall        Calls

--------------------------------------------------------------------------------------

**************************************************************************************

Host: sapelo2-sub2.ecompute

Timers On : Tue Sep 22 16:19:48 2020
[...]

**************************************************************************************

Host: vlogin2.ccqc.uga.edu

Timers On : Mon Sep 28 13:22:30 2020
Timers Off: Mon Sep 28 13:22:31 2020

Wall Time:        1.55 seconds

                                                       Time (seconds)
Module                                       User      System        Wall        Calls

--------------------------------------------------------------------------------------

**************************************************************************************

Host: vlogin2.ccqc.uga.edu

Timers On : Mon Sep 28 13:40:37 2020
Timers Off: Mon Sep 28 13:40:38 2020

Wall Time:        1.47 seconds

                                                       Time (seconds)
Module                                       User      System        Wall        Calls

--------------------------------------------------------------------------------------

**************************************************************************************

Host: vlogin2.ccqc.uga.edu

Timers On : Mon Sep 28 13:42:12 2020
Timers Off: Mon Sep 28 13:42:21 2020

Wall Time:        8.90 seconds

                                                       Time (seconds)
Module                                       User      System        Wall        Calls

--------------------------------------------------------------------------------------

**************************************************************************************

Host: vlogin2.ccqc.uga.edu

Timers On : Mon Sep 28 13:42:45 2020
Timers Off: Mon Sep 28 13:42:54 2020

Wall Time:        8.24 seconds

                                                       Time (seconds)
Module                                       User      System        Wall        Calls

--------------------------------------------------------------------------------------

**************************************************************************************

Host: vlogin2.ccqc.uga.edu

Timers On : Mon Sep 28 13:44:31 2020
Timers Off: Mon Sep 28 13:44:40 2020

Wall Time:        8.83 seconds

                                                       Time (seconds)
Module                                       User      System        Wall        Calls

--------------------------------------------------------------------------------------

**************************************************************************************

Host: vlogin2.ccqc.uga.edu

Timers On : Mon Sep 28 13:49:39 2020
Timers Off: Mon Sep 28 13:49:48 2020

Wall Time:        8.71 seconds

                                                       Time (seconds)
Module                                       User      System        Wall        Calls

--------------------------------------------------------------------------------------

**************************************************************************************

Host: vlogin2.ccqc.uga.edu

Timers On : Mon Sep 28 13:50:15 2020
Timers Off: Mon Sep 28 13:50:23 2020

Wall Time:        8.17 seconds

                                                       Time (seconds)
Module                                       User      System        Wall        Calls

--------------------------------------------------------------------------------------

**************************************************************************************

Host: vlogin2.ccqc.uga.edu

Timers On : Mon Sep 28 13:50:48 2020
Timers Off: Mon Sep 28 13:50:57 2020

Wall Time:        8.97 seconds

                                                       Time (seconds)
Module                                       User      System        Wall        Calls

--------------------------------------------------------------------------------------

**************************************************************************************

Host: vlogin2.ccqc.uga.edu

Timers On : Mon Sep 28 13:53:27 2020
Timers Off: Mon Sep 28 13:53:39 2020

Wall Time:       11.34 seconds

                                                       Time (seconds)
Module                                       User      System        Wall        Calls

--------------------------------------------------------------------------------------

**************************************************************************************

Host: vlogin2.ccqc.uga.edu

Timers On : Mon Sep 28 15:48:44 2020
Timers Off: Mon Sep 28 15:48:47 2020

Wall Time:        2.47 seconds

                                                       Time (seconds)
Module                                       User      System        Wall        Calls

--------------------------------------------------------------------------------------

**************************************************************************************

Host: vlogin2.ccqc.uga.edu

Timers On : Mon Sep 28 15:49:17 2020
Timers Off: Mon Sep 28 15:51:50 2020

Wall Time:      153.01 seconds

                                                       Time (seconds)
Module                                       User      System        Wall        Calls

--------------------------------------------------------------------------------------

**************************************************************************************

Host: vlogin2.ccqc.uga.edu

Timers On : Mon Sep 28 16:07:01 2020
Timers Off: Mon Sep 28 16:14:10 2020

Wall Time:      429.06 seconds

                                                       Time (seconds)
Module                                       User      System        Wall        Calls

--------------------------------------------------------------------------------------

**************************************************************************************

Host: vlogin2.ccqc.uga.edu

Timers On : Mon Sep 28 16:58:00 2020
Timers Off: Mon Sep 28 17:04:04 2020

Wall Time:      364.36 seconds

                                                       Time (seconds)
Module                                       User      System        Wall        Calls

--------------------------------------------------------------------------------------

**************************************************************************************

Host: vlogin2.ccqc.uga.edu

Timers On : Tue Sep 29 10:34:36 2020
Timers Off: Tue Sep 29 10:40:51 2020

Wall Time:      375.23 seconds

                                                       Time (seconds)
Module                                       User      System        Wall        Calls

--------------------------------------------------------------------------------------

**************************************************************************************

Host: vlogin2.ccqc.uga.edu

Timers On : Tue Sep 29 13:46:07 2020
Timers Off: Tue Sep 29 13:52:13 2020

Wall Time:      365.11 seconds

                                                       Time (seconds)
Module                                       User      System        Wall        Calls

--------------------------------------------------------------------------------------

**************************************************************************************

Host: vlogin2.ccqc.uga.edu

Timers On : Tue Sep 29 15:14:53 2020
Timers Off: Tue Sep 29 15:20:57 2020

Wall Time:      364.22 seconds

                                                       Time (seconds)
Module                                       User      System        Wall        Calls

--------------------------------------------------------------------------------------

**************************************************************************************

Host: vlogin2.ccqc.uga.edu

Timers On : Tue Sep 29 15:23:20 2020
Timers Off: Tue Sep 29 15:23:22 2020

Wall Time:        2.40 seconds

                                                       Time (seconds)
Module                                       User      System        Wall        Calls

--------------------------------------------------------------------------------------

**************************************************************************************

Host: vlogin2.ccqc.uga.edu

Timers On : Tue Sep 29 15:24:34 2020
Timers Off: Tue Sep 29 15:24:37 2020

Wall Time:        2.36 seconds

                                                       Time (seconds)
Module                                       User      System        Wall        Calls

--------------------------------------------------------------------------------------

**************************************************************************************

Host: vlogin2.ccqc.uga.edu

Timers On : Tue Sep 29 15:26:21 2020
Timers Off: Tue Sep 29 15:26:24 2020

Wall Time:        2.69 seconds

                                                       Time (seconds)
Module                                       User      System        Wall        Calls

--------------------------------------------------------------------------------------

**************************************************************************************

Host: vlogin2.ccqc.uga.edu

Timers On : Tue Sep 29 15:31:26 2020
Timers Off: Tue Sep 29 15:37:43 2020

Wall Time:      376.88 seconds

                                                       Time (seconds)
Module                                       User      System        Wall        Calls

--------------------------------------------------------------------------------------

**************************************************************************************

Host: vlogin2.ccqc.uga.edu

Timers On : Tue Sep 29 15:50:18 2020
Timers Off: Tue Sep 29 15:57:08 2020

Wall Time:      410.12 seconds

                                                       Time (seconds)
Module                                       User      System        Wall        Calls

--------------------------------------------------------------------------------------

**************************************************************************************

Host: Mjolnir

Timers On : Wed Sep 30 12:01:20 2020
Timers Off: Wed Sep 30 12:01:22 2020

Wall Time:        1.52 seconds

                                                       Time (seconds)
Module                                       User      System        Wall        Calls

--------------------------------------------------------------------------------------

**************************************************************************************

Host: Mjolnir

Timers On : Wed Sep 30 12:02:09 2020
Timers Off: Wed Sep 30 12:02:10 2020

Wall Time:        0.63 seconds

                                                       Time (seconds)
Module                                       User      System        Wall        Calls

--------------------------------------------------------------------------------------

**************************************************************************************

Host: Mjolnir

Timers On : Wed Sep 30 12:06:55 2020
Timers Off: Wed Sep 30 12:06:56 2020

Wall Time:        0.69 seconds

                                                       Time (seconds)
Module                                       User      System        Wall        Calls

--------------------------------------------------------------------------------------

**************************************************************************************

Host: Mjolnir

Timers On : Wed Sep 30 12:12:26 2020
Timers Off: Wed Sep 30 12:12:58 2020

Wall Time:       31.80 seconds

                                                       Time (seconds)
Module                                       User      System        Wall        Calls

--------------------------------------------------------------------------------------

**************************************************************************************

Host: Mjolnir

Timers On : Wed Sep 30 12:37:51 2020
Timers Off: Wed Sep 30 12:37:55 2020

Wall Time:        3.76 seconds

                                                       Time (seconds)
Module                                       User      System        Wall        Calls

--------------------------------------------------------------------------------------

**************************************************************************************

Host: Mjolnir

Timers On : Wed Sep 30 12:44:30 2020
Timers Off: Wed Sep 30 12:44:34 2020

Wall Time:        4.19 seconds

                                                       Time (seconds)
Module                                       User      System        Wall        Calls

--------------------------------------------------------------------------------------

**************************************************************************************

Host: Mjolnir

Timers On : Wed Sep 30 12:47:00 2020
Timers Off: Wed Sep 30 12:51:50 2020

Wall Time:      290.35 seconds

                                                       Time (seconds)
Module                                       User      System        Wall        Calls

--------------------------------------------------------------------------------------

**************************************************************************************

Host: Mjolnir

Timers On : Wed Sep 30 13:17:27 2020
Timers Off: Wed Sep 30 13:17:29 2020

Wall Time:        2.47 seconds

                                                       Time (seconds)
Module                                       User      System        Wall        Calls

--------------------------------------------------------------------------------------

**************************************************************************************

Host: Mjolnir

Timers On : Wed Sep 30 13:22:18 2020
Timers Off: Wed Sep 30 13:22:20 2020

Wall Time:        2.48 seconds

                                                       Time (seconds)
Module                                       User      System        Wall        Calls

--------------------------------------------------------------------------------------

**************************************************************************************

Host: Mjolnir

Timers On : Wed Sep 30 13:33:48 2020
Timers Off: Wed Sep 30 13:34:02 2020

Wall Time:       13.47 seconds

                                                       Time (seconds)
Module                                       User      System        Wall        Calls

--------------------------------------------------------------------------------------

**************************************************************************************

Host: Mjolnir

Timers On : Wed Sep 30 13:34:19 2020
Timers Off: Wed Sep 30 13:35:02 2020

Wall Time:       42.60 seconds

                                                       Time (seconds)
Module                                       User      System        Wall        Calls

--------------------------------------------------------------------------------------

**************************************************************************************

Host: Mjolnir

Timers On : Fri Oct  2 14:39:06 2020
Timers Off: Fri Oct  2 14:39:07 2020

Wall Time:        0.98 seconds

                                                       Time (seconds)
Module                                       User      System        Wall        Calls

--------------------------------------------------------------------------------------

**************************************************************************************

Host: Mjolnir

Timers On : Fri Oct  2 14:46:23 2020
Timers Off: Fri Oct  2 14:46:24 2020

Wall Time:        0.62 seconds

                                                       Time (seconds)
Module                                       User      System        Wall        Calls

--------------------------------------------------------------------------------------

**************************************************************************************

Host: Mjolnir

Timers On : Fri Oct  2 15:29:07 2020
Timers Off: Fri Oct  2 15:33:35 2020

Wall Time:      268.41 seconds

                                                       Time (seconds)
Module                                       User      System        Wall        Calls

--------------------------------------------------------------------------------------

**************************************************************************************

Host: Mjolnir

Timers On : Fri Oct  2 15:44:04 2020
Timers Off: Fri Oct  2 15:44:09 2020

Wall Time:        5.10 seconds

                                                       Time (seconds)
Module                                       User      System        Wall        Calls

--------------------------------------------------------------------------------------

**************************************************************************************

Host: Mjolnir

Timers On : Fri Oct  2 17:18:14 2020
Timers Off: Fri Oct  2 17:18:19 2020

Wall Time:        5.69 seconds

                                                       Time (seconds)
Module                                       User      System        Wall        Calls

--------------------------------------------------------------------------------------

**************************************************************************************

Host: Mjolnir

Timers On : Mon Oct 19 13:15:08 2020
Timers Off: Mon Oct 19 13:17:40 2020

Wall Time:      151.64 seconds

                                                       Time (seconds)
Module                                       User      System        Wall        Calls

--------------------------------------------------------------------------------------

**************************************************************************************

Host: Mjolnir

Timers On : Mon Oct 19 13:17:52 2020
Timers Off: Mon Oct 19 13:17:53 2020

Wall Time:        0.92 seconds

                                                       Time (seconds)
Module                                       User      System        Wall        Calls

--------------------------------------------------------------------------------------

**************************************************************************************

Host: Mjolnir

Timers On : Mon Oct 19 13:35:11 2020
Timers Off: Mon Oct 19 13:35:54 2020

Wall Time:       42.75 seconds

                                                       Time (seconds)
Module                                       User      System        Wall        Calls

--------------------------------------------------------------------------------------

**************************************************************************************

Host: Mjolnir

Timers On : Mon Oct 19 13:36:04 2020
Timers Off: Mon Oct 19 13:36:06 2020

Wall Time:        2.17 seconds

                                                       Time (seconds)
Module                                       User      System        Wall        Calls

--------------------------------------------------------------------------------------

**************************************************************************************

Host: Mjolnir

Timers On : Mon Oct 19 13:36:18 2020
Timers Off: Mon Oct 19 13:36:19 2020

Wall Time:        0.88 seconds

                                                       Time (seconds)
Module                                       User      System        Wall        Calls

--------------------------------------------------------------------------------------

**************************************************************************************

Host: Mjolnir

Timers On : Mon Oct 19 13:36:35 2020
Timers Off: Mon Oct 19 13:36:36 2020

Wall Time:        1.12 seconds

                                                       Time (seconds)
Module                                       User      System        Wall        Calls

--------------------------------------------------------------------------------------

**************************************************************************************
