
 Primary working directories    : /tmp/320938.926.gen6.q
 Secondary working directories  : /tmp/320938.926.gen6.q
 Wavefunction directory         : /home/vulcan/mel64643/wfu/
 Main file repository           : /tmp/320938.926.gen6.q/

 ARCHNAME  : Linux/x86_64
 FC        : /opt/intel/compilers_and_libraries_2016.1.150/linux/bin/intel64/ifort
 FCVERSION : 16.0.1
 BLASLIB   : -mkl
 id        : ccgc

 Nodes     nprocs
 n090         3
 Number of processes for MPI-2 version of Molpro:   nprocs(total)=    4   nprocs(compute)=    3   nprocs(helper)=    1
 ga_uses_ma=false, calling ma_init with nominal heap.
 GA-space will be limited to   8.0 MW (determined by -G option)

 Using customized tuning parameters: mindgm=10; mindgv=16; mindgc=4; mindgr=1; noblas=0; mincuda=1000; minvec=7
 default implementation of scratch files=sf  

 ***,Frequencies for min3
 memory,1000,m
 gthresh,energy=1.0d-10,orbital=1.0d-10,oneint=1.0d-16,twoint=1.0d-16,optgrad=1.0d-6,compress=1.0d-13
 geomtyp=xyz
 
  geometry = {
  12
  arbitrary comment
     C    1.776964391707    0.711398808326   -0.047331391796
     C    0.491811976407   -0.059992870174   -0.196493901896
     C    0.450332819107   -1.536294019674    0.101417522804
     O   -0.560767745493    0.727234937526    0.254015897436
     O   -1.838204382760    0.092294125273   -0.120252841277
     H    2.586255445836    0.211521110797   -0.610781498689
     H    1.661331966698    1.742913606274   -0.425512018532
     H    2.095892022925    0.773654249608    1.018430600512
     H   -0.504073668658   -1.982755722464   -0.220287870964
     H    1.282705413921   -2.047172457911   -0.417240270456
     H    0.562477673776   -1.719575341011    1.194698372269
     H   -1.987127553323    0.551104401813   -0.966599153602
  }
 
 basis=cc-pvdz
 {rhf;maxit,200}
 {uccsd(t);maxit,200}

 Variables initialized (661), CPU time= 0.01 sec
 Commands  initialized (458), CPU time= 0.00 sec, 486 directives.
 Default parameters read. Elapsed time= 0.07 sec

 Checking input...
 Passed
1


                                         ***  PROGRAM SYSTEM MOLPRO  ***
                         Copyright, University College Cardiff Consultants Limited, 2008

                                    Version 2010.1 linked May 16 2016 07:17:05


 **********************************************************************************************************************************
 LABEL *   Frequencies for min3                                                          
 Linux-4.4.3/n090(x86_64) 64 bit mpp version                                             DATE: 07-Mar-20          TIME: 06:26:05  
 **********************************************************************************************************************************

 SHA1:             9e8077add272b0f3cad6f7df79ec5211205f459d
 **********************************************************************************************************************************

 THRESHOLDS:

 ZERO    =  1.00D-12  ONEINT  =  1.00D-16  TWOINT  =  1.00D-16  PREFAC  =  1.00D-14  LOCALI  =  1.00D-09  EORDER  =  1.00D-04
 ENERGY  =  1.00D-10  ETEST   =  0.00D+00  EDENS   =  0.00D+00  THRDEDEF=  1.00D-06  GRADIENT=  1.00D-02  STEP    =  1.00D-03
 ORBITAL =  1.00D-10  CIVEC   =  1.00D-05  COEFF   =  1.00D-04  PRINTCI =  5.00D-02  PUNCHCI =  9.90D+01  OPTGRAD =  1.00D-06
 OPTENERG=  1.00D-06  OPTSTEP =  3.00D-04  THRGRAD =  1.00D-10  COMPRESS=  1.00D-13  VARMIN  =  1.00D-07  VARMAX  =  1.00D-03
 THRDOUB =  0.00D+00  THRDIV  =  1.00D-05  THRRED  =  1.00D-07  THRPSP  =  1.00D+00  THRDC   =  1.00D-10  THRCS   =  1.00D-10
 THRNRM  =  1.00D-08  THREQ   =  0.00D+00  THRDE   =  1.00D+00  THRREF  =  1.00D-05  SPARFAC =  1.00D+00  THRDLP  =  1.00D-07
 THRDIA  =  1.00D-10  THRDLS  =  1.00D-07  THRGPS  =  0.00D+00  THRKEX  =  0.00D+00  THRDIS  =  2.00D-01  THRVAR  =  1.00D-10
 THRLOC  =  1.00D-06  THRGAP  =  1.00D-06  THRLOCT = -1.00D+00  THRGAPT = -1.00D+00  THRORB  =  1.00D-06  THRMLTP =  0.00D+00
 THRCPQCI=  1.00D-10  KEXTA   =  0.00D+00  THRCOARS=  0.00D+00  SYMTOL  =  1.00D-06  GRADTOL =  1.00D-06  THROVL  =  1.00D-08
 THRORTH =  1.00D-08  GRID    =  1.00D-06  GRIDMAX =  1.00D-03  DTMAX   =  0.00D+00

 SETTING GEOMTYP        =    XYZ

 Variable memory set to 1000000000 words,  buffer space   230000 words

 SETTING BASIS          =    CC-PVDZ


 Recomputing integrals since basis changed


 Using spherical harmonics

 Library entry C      S cc-pVDZ              selected for orbital group  1
 Library entry C      P cc-pVDZ              selected for orbital group  1
 Library entry C      D cc-pVDZ              selected for orbital group  1
 Library entry O      S cc-pVDZ              selected for orbital group  2
 Library entry O      P cc-pVDZ              selected for orbital group  2
 Library entry O      D cc-pVDZ              selected for orbital group  2
 Library entry H      S cc-pVDZ              selected for orbital group  3
 Library entry H      P cc-pVDZ              selected for orbital group  3

1PROGRAM * SEWARD (Integral evaluation for generally contracted gaussian basis sets)     Author: Roland Lindh, 1990

 Geometry written to block  1 of record 700


 Point group  C1  



 ATOMIC COORDINATES

 NR  ATOM    CHARGE       X              Y              Z

   1  C       6.00    3.357976046    1.344348918   -0.089443368
   2  C       6.00    0.929389944   -0.113370094   -0.371319661
   3  C       6.00    0.851005696   -2.903174955    0.191651343
   4  O       8.00   -1.059697462    1.374274865    0.480020479
   5  O       8.00   -3.473702857    0.174410620   -0.227244937
   6  H       1.00    4.887314499    0.399716970   -1.154209759
   7  H       1.00    3.139462430    3.293629387   -0.804101181
   8  H       1.00    3.960661924    1.461994652    1.924554919
   9  H       1.00   -0.952561184   -3.746865301   -0.416283746
  10  H       1.00    2.423961940   -3.868595289   -0.788469842
  11  H       1.00    1.062928758   -3.249526457    2.257652733
  12  H       1.00   -3.755126864    1.041436389   -1.826607679

 Bond lengths in Bohr (Angstrom)

 1-2  2.846476668  1-6  2.089242228  1-7  2.087625046  1-8  2.105530785  2-3  2.847119878
     ( 1.506290578)     ( 1.105579371)     ( 1.104723596)     ( 1.114198904)     ( 1.506630951)

  2- 4  2.625706813   3- 9  2.081886636   3-10  2.089704597   3-11  2.105524280   4- 5  2.786991320
       ( 1.389464203)       ( 1.101686959)       ( 1.105824046)       ( 1.114195462)       ( 1.474812288)

  5-12  1.840894983
       ( 0.974159669)

 Bond angles

  1-2-3  120.37866573   1-2-4  108.90944847   2-1-6  110.03079266   2-1-7  110.79174780

  2- 1- 8  111.56473903   2- 3- 9  111.29714126   2- 3-10  109.82959312   2- 3-11  110.63637924

  2- 4- 5  109.26621260   3- 2- 4  118.04702874   4- 5-12   98.63411110   6- 1- 7  108.92508985

  6- 1- 8  107.65117662   7- 1- 8  107.77246356   9- 3-10  109.14175039   9- 3-11  107.88231494

 10- 3-11  107.96659471

 NUCLEAR CHARGE:                   41
 NUMBER OF PRIMITIVE AOS:         184
 NUMBER OF SYMMETRY AOS:          179
 NUMBER OF CONTRACTIONS:          105   ( 105A   )
 NUMBER OF CORE ORBITALS:           5   (   5A   )
 NUMBER OF VALENCE ORBITALS:       27   (  27A   )


 NUCLEAR REPULSION ENERGY  183.21594767


 Eigenvalues of metric

         1 0.345E-02 0.435E-02 0.105E-01 0.141E-01 0.182E-01 0.214E-01 0.331E-01 0.346E-01


 Contracted 2-electron integrals neglected if value below      1.0D-16
 AO integral compression algorithm  1   Integral accuracy      1.0D-16

     127.402 MB (compressed) written to integral file ( 93.4%)

     Node minimum: 40.108 MB, node maximum: 45.613 MB


 NUMBER OF SORTED TWO-ELECTRON INTEGRALS:    5164320.     BUFFER LENGTH:  32768
 NUMBER OF SEGMENTS:   1  SEGMENT LENGTH:    5164320      RECORD LENGTH: 524288

 Memory used in sort:       5.72 MW

 SORT1 READ    17075251. AND WROTE     5135848. INTEGRALS IN     15 RECORDS. CPU TIME:     0.31 SEC, REAL TIME:     0.35 SEC
 SORT2 READ    15396436. AND WROTE    15487395. INTEGRALS IN    459 RECORDS. CPU TIME:     0.09 SEC, REAL TIME:     0.12 SEC

 Node minimum:     5160610.  Node maximum:     5164320. integrals

 OPERATOR DM      FOR CENTER  0  COORDINATES:    0.000000    0.000000    0.000000


 **********************************************************************************************************************************
 DATASETS  * FILE   NREC   LENGTH (MB)   RECORD NAMES
              1      18        3.17       500      610      700      900      950      970     1000      129      960     1100   
                                          VAR    BASINP    GEOM    SYMINP    ZMAT    AOBASIS   BASIS     P2S    ABASIS      S 
                                         1400     1410     1200     1210     1080     1600     1650     1700   
                                           T        V       H0       H01     AOSYM     SMH    MOLCAS    OPER   

 PROGRAMS   *        TOTAL       INT
 CPU TIMES  *         1.27      1.19
 REAL TIME  *         1.67 SEC
 DISK USED  *       307.32 MB      
 GA USED    *         0.00 MB       (max)       0.00 MB       (current)
 **********************************************************************************************************************************

1PROGRAM * RHF-SCF (OPEN SHELL)       Authors: W. Meyer, H.-J. Werner


 NUMBER OF ELECTRONS:      21+   20-    SPACE SYMMETRY=1    SPIN SYMMETRY: Doublet 
 CONVERGENCE THRESHOLDS:    1.00E-10 (Density)    1.00E-11 (Energy)
 MAX. NUMBER OF ITERATIONS:      200
 INTERPOLATION TYPE:            DIIS
 INTERPOLATION STEPS:              2 (START)      1 (STEP)
 LEVEL SHIFTS:                 -0.30 (CLOSED)  0.00 (OPEN) 



 Orbital guess generated from atomic densities. Full valence occupancy:   32

 Molecular orbital dump at record        2100.2

 ITERATION    DDIFF          GRAD             ENERGY        2-EL.EN.            DIPOLE MOMENTS         DIIS
    1      0.000D+00      0.000D+00      -267.17820193    555.802821    0.57293    0.04923   -0.74854    0
    2      0.000D+00      0.617D-02      -267.24888317    555.724575    0.41495   -0.13120   -0.59823    1
    3      0.927D-02      0.214D-02      -267.26106558    555.642351    0.39438   -0.05919   -0.62576    2
    4      0.336D-02      0.912D-03      -267.26467918    555.794730    0.37949   -0.09934   -0.64223    3
    5      0.186D-02      0.364D-03      -267.26525012    555.766084    0.38193   -0.09284   -0.63526    4
    6      0.793D-03      0.110D-03      -267.26532695    555.752347    0.38017   -0.09264   -0.63801    5
    7      0.278D-03      0.513D-04      -267.26534725    555.749329    0.37944   -0.09238   -0.63751    6
    8      0.144D-03      0.274D-04      -267.26535336    555.747387    0.37971   -0.09250   -0.63772    7
    9      0.928D-04      0.115D-04      -267.26535428    555.747700    0.37989   -0.09245   -0.63748    8
   10      0.367D-04      0.502D-05      -267.26535444    555.748314    0.38015   -0.09247   -0.63754    9
   11      0.147D-04      0.197D-05      -267.26535447    555.748155    0.38021   -0.09246   -0.63755    9
   12      0.652D-05      0.671D-06      -267.26535447    555.748290    0.38022   -0.09246   -0.63754    9
   13      0.228D-05      0.227D-06      -267.26535447    555.748205    0.38023   -0.09246   -0.63754    9
   14      0.632D-06      0.760D-07      -267.26535447    555.748214    0.38023   -0.09246   -0.63754    9
   15      0.193D-06      0.302D-07      -267.26535447    555.748210    0.38023   -0.09246   -0.63754    9
   16      0.829D-07      0.146D-07      -267.26535447    555.748212    0.38023   -0.09246   -0.63754    9
   17      0.377D-07      0.756D-08      -267.26535447    555.748212    0.38023   -0.09246   -0.63754    9
   18      0.224D-07      0.343D-08      -267.26535447    555.748212    0.38023   -0.09246   -0.63754    9
   19      0.115D-07      0.134D-08      -267.26535447    555.748212    0.38023   -0.09246   -0.63754    9
   20      0.445D-08      0.570D-09      -267.26535447    555.748212    0.38023   -0.09246   -0.63754    9
   21      0.167D-08      0.289D-09      -267.26535447    555.748212    0.38023   -0.09246   -0.63754    9
   22      0.761D-09      0.163D-09      -267.26535447    555.748212    0.38023   -0.09246   -0.63754    9
   23      0.449D-09      0.801D-10      -267.26535447    555.748212    0.38023   -0.09246   -0.63754    9
   24      0.265D-09      0.319D-10      -267.26535447    555.748212    0.38023   -0.09246   -0.63754    9
   25      0.938D-10      0.130D-10      -267.26535447    555.748212    0.38023   -0.09246   -0.63754    0

 Final alpha occupancy:  21
 Final beta  occupancy:  20

 !RHF STATE 1.1 Energy               -267.265354468974
 Nuclear energy                       183.21594767
 One-electron energy                 -728.35540797
 Two-electron energy                  277.87410583
 Virial quotient                       -1.00155823
 !RHF STATE 1.1 Dipole moment           0.38022978    -0.09246441    -0.63754047
 Dipole moment /Debye                   0.96638441    -0.23500570    -1.62036012

 Orbital energies:

         1.1          2.1          3.1          4.1          5.1          6.1          7.1          8.1          9.1         10.1
    -20.630483   -20.628893   -11.279299   -11.237975   -11.232225    -1.470231    -1.240845    -1.023178    -0.945314    -0.768473

        11.1         12.1         13.1         14.1         15.1         16.1         17.1         18.1         19.1         20.1
     -0.704668    -0.643124    -0.626770    -0.588716    -0.545154    -0.543414    -0.538723    -0.517007    -0.493103    -0.469882

        21.1         22.1         23.1
     -0.352239     0.181299     0.183528


 **********************************************************************************************************************************
 DATASETS  * FILE   NREC   LENGTH (MB)   RECORD NAMES
              1      18        3.17       500      610      700      900      950      970     1000      129      960     1100   
                                          VAR    BASINP    GEOM    SYMINP    ZMAT    AOBASIS   BASIS     P2S    ABASIS      S 
                                         1400     1410     1200     1210     1080     1600     1650     1700   
                                           T        V       H0       H01     AOSYM     SMH    MOLCAS    OPER   

              2       3        0.77       700     1000     2100   
                                         GEOM     BASIS     RHF  

 PROGRAMS   *        TOTAL       RHF       INT
 CPU TIMES  *         2.64      1.37      1.19
 REAL TIME  *         3.25 SEC
 DISK USED  *       323.88 MB      
 SF USED    *         0.04 MB      
 GA USED    *         0.00 MB       (max)       0.00 MB       (current)
 **********************************************************************************************************************************


1PROGRAM * CCSD (Unrestricted open-shell coupled cluster)     Authors: C. Hampel, H.-J. Werner, 1991, M. Deegan, P.J. Knowles, 1992


 Convergence thresholds:  THRVAR = 1.00D-08  THRDEN = 1.00D-10

 CCSD(T)     terms to be evaluated (factor= 1.000)


 Number of core orbitals:           5 (   5 )
 Number of closed-shell orbitals:  15 (  15 )
 Number of active  orbitals:        1 (   1 )
 Number of external orbitals:      84 (  84 )

 Memory could be reduced to 24.91 Mwords without degradation in triples

 Number of N-1 electron functions:              31
 Number of N-2 electron functions:             465
 Number of singly external CSFs:              2635
 Number of doubly external CSFs:           2537250
 Total number of CSFs:                     2539885

 Molecular orbitals read from record     2100.2  Type=RHF/CANONICAL (state 1.1)

 Integral transformation finished. Total CPU:   0.72 sec, npass=  1  Memory used:  12.63 MW

 Starting RMP2 calculation

 ITER.      SQ.NORM     CORR.ENERGY   TOTAL ENERGY   ENERGY CHANGE        DEN1      VAR(S)    VAR(P)  DIIS     TIME
   1      1.24305818    -0.78640775  -268.05176222    -0.78640775    -0.00305030  0.20D-04  0.11D-02  1  1     0.97
   2      1.24570045    -0.78969731  -268.05505178    -0.00328956    -0.00000475  0.54D-06  0.19D-05  2  2     1.21
   3      1.24576606    -0.78973941  -268.05509388    -0.00004209    -0.00000003  0.16D-07  0.68D-08  3  3     1.48
   4      1.24576701    -0.78973941  -268.05509388    -0.00000000    -0.00000000  0.27D-09  0.38D-10  4  4     1.76
   5      1.24576710    -0.78973944  -268.05509391    -0.00000003    -0.00000000  0.25D-11  0.65D-12  5  5     2.07
   6      1.24576711    -0.78973945  -268.05509392    -0.00000001    -0.00000000  0.28D-13  0.87D-14  6  6     2.39
   7      1.24576711    -0.78973945  -268.05509392     0.00000000    -0.00000000  0.47D-15  0.12D-15  6  1     2.72
   8      1.24576711    -0.78973945  -268.05509392     0.00000000    -0.00000000  0.60D-17  0.13D-17  6  2     3.06

 Norm of t1 vector:      0.03894375      S-energy:    -0.00227255      T1 diagnostic:  0.00055054
 Norm of t2 vector:      0.49421705      P-energy:    -0.78746689
                                         Alpha-Beta:  -0.59344039
                                         Alpha-Alpha: -0.10094318
                                         Beta-Beta:   -0.09308332

 Spin contamination <S**2-Sz**2-Sz>     0.00104078
  Reference energy                   -267.265354468972
  RHF-RMP2 correlation energy          -0.789739447225
 !RHF-RMP2 energy                    -268.055093916197

 Starting UCCSD calculation

 ITER.      SQ.NORM     CORR.ENERGY   TOTAL ENERGY   ENERGY CHANGE        DEN1      VAR(S)    VAR(P)  DIIS     TIME
   1      1.26283122    -0.80907220  -268.07442667    -0.80907220    -0.02516066  0.38D-02  0.59D-02  1  1     7.77
   2      1.29161417    -0.83648541  -268.10183988    -0.02741321    -0.00201219  0.22D-03  0.66D-03  2  2    12.50
   3      1.30156167    -0.84098566  -268.10634013    -0.00450025    -0.00032482  0.19D-03  0.56D-04  3  3    17.25
   4      1.30647888    -0.84246371  -268.10781817    -0.00147805    -0.00007213  0.43D-04  0.14D-04  4  4    22.01
   5      1.30921068    -0.84285206  -268.10820653    -0.00038835    -0.00002369  0.19D-04  0.32D-05  5  5    26.80
   6      1.31115120    -0.84305666  -268.10841113    -0.00020460    -0.00000646  0.42D-05  0.12D-05  6  6    31.61
   7      1.31210131    -0.84311549  -268.10846996    -0.00005883    -0.00000208  0.14D-05  0.37D-06  6  2    36.44
   8      1.31254353    -0.84315821  -268.10851268    -0.00004272    -0.00000065  0.45D-06  0.11D-06  6  1    41.31
   9      1.31272932    -0.84316282  -268.10851729    -0.00000461    -0.00000022  0.15D-06  0.35D-07  6  4    46.15
  10      1.31279280    -0.84316576  -268.10852023    -0.00000294    -0.00000005  0.35D-07  0.96D-08  6  3    50.97
  11      1.31282245    -0.84316451  -268.10851898     0.00000125    -0.00000002  0.13D-07  0.28D-08  6  5    55.81
  12      1.31283287    -0.84316425  -268.10851872     0.00000026    -0.00000000  0.26D-08  0.96D-09  6  6    60.63
  13      1.31283173    -0.84316333  -268.10851780     0.00000092    -0.00000000  0.97D-09  0.29D-09  6  2    65.48
  14      1.31282650    -0.84316248  -268.10851695     0.00000085    -0.00000000  0.21D-09  0.68D-10  6  1    70.32
  15      1.31282242    -0.84316189  -268.10851636     0.00000059    -0.00000000  0.78D-10  0.19D-10  6  4    75.16
  16      1.31281923    -0.84316151  -268.10851598     0.00000038    -0.00000000  0.28D-10  0.63D-11  6  3    80.00
  17      1.31281702    -0.84316127  -268.10851574     0.00000024    -0.00000000  0.10D-10  0.24D-11  6  5    84.76
  18      1.31281612    -0.84316121  -268.10851568     0.00000006    -0.00000000  0.41D-11  0.87D-12  6  6    89.60
  19      1.31281551    -0.84316118  -268.10851565     0.00000003    -0.00000000  0.16D-11  0.37D-12  6  2    95.63
  20      1.31281519    -0.84316116  -268.10851563     0.00000001    -0.00000000  0.60D-12  0.13D-12  6  1   100.46
  21      1.31281502    -0.84316115  -268.10851562     0.00000001    -0.00000000  0.28D-12  0.58D-13  6  4   105.30
  22      1.31281490    -0.84316115  -268.10851561     0.00000001    -0.00000000  0.74D-13  0.21D-13  6  3   110.14
  23      1.31281484    -0.84316114  -268.10851561     0.00000000    -0.00000000  0.22D-13  0.63D-14  6  5   114.99
  24      1.31281484    -0.84316114  -268.10851561    -0.00000000    -0.00000000  0.68D-14  0.23D-14  6  6   119.86
  25      1.31281484    -0.84316114  -268.10851561    -0.00000000    -0.00000000  0.21D-14  0.53D-15  6  2   124.71
  26      1.31281485    -0.84316115  -268.10851561    -0.00000000    -0.00000000  0.77D-15  0.15D-15  6  1   129.56
  27      1.31281486    -0.84316115  -268.10851562    -0.00000000    -0.00000000  0.20D-15  0.63D-16  6  3   134.41
  28      1.31281486    -0.84316115  -268.10851562    -0.00000000    -0.00000000  0.30D-16  0.11D-16  6  4   139.25
  29      1.31281486    -0.84316115  -268.10851562    -0.00000000    -0.00000000  0.71D-17  0.29D-17  6  5   144.11
  30      1.31281486    -0.84316115  -268.10851562    -0.00000000    -0.00000000  0.15D-17  0.54D-18  6  6   148.96
  31      1.31281487    -0.84316115  -268.10851562    -0.00000000    -0.00000000  0.35D-18  0.10D-18  6  2   153.81

 Norm of t1 vector:      0.13875757      S-energy:    -0.00282247      T1 diagnostic:  0.01617370
                                                                       D1 diagnostic:  0.06284285
 Norm of t2 vector:      0.54181289      P-energy:    -0.84033868
                                         Alpha-Beta:  -0.66489281
                                         Alpha-Alpha: -0.09147334
                                         Beta-Beta:   -0.08397253

 Spin contamination <S**2-Sz**2-Sz>     0.00217370

 Memory could be reduced to 28.85 Mwords without degradation in triples
 

 RESULTS
 =======

  Reference energy                   -267.265354468972
  UCCSD singles energy                 -0.002822468766
  UCCSD pair energy                    -0.840338678029
  UCCSD correlation energy             -0.843161146794
  Triples (T) contribution             -0.024980508619
  Total correlation energy             -0.868141655413
 
  RHF-UCCSD energy                   -268.108515615766
  RHF-UCCSD[T] energy                -268.134832461311
  RHF-UCCSD-T energy                 -268.133074595613
 !RHF-UCCSD(T) energy                -268.133496124385

 Program statistics:

 Available memory in ccsd:               999997692
 Min. memory needed in ccsd:               7337057
 Max. memory used in ccsd:                10523002
 Max. memory used in cckext:              10867977 (31 integral passes)
 Max. memory used in cckint:              12633073 ( 1 integral passes)



 **********************************************************************************************************************************
 DATASETS  * FILE   NREC   LENGTH (MB)   RECORD NAMES
              1      18        3.17       500      610      700      900      950      970     1000      129      960     1100   
                                          VAR    BASINP    GEOM    SYMINP    ZMAT    AOBASIS   BASIS     P2S    ABASIS      S 
                                         1400     1410     1200     1210     1080     1600     1650     1700   
                                           T        V       H0       H01     AOSYM     SMH    MOLCAS    OPER   

              2       3        0.77       700     1000     2100   
                                         GEOM     BASIS     RHF  

 PROGRAMS   *        TOTAL  UCCSD(T)       RHF       INT
 CPU TIMES  *       193.69    191.05      1.37      1.19
 REAL TIME  *       203.20 SEC
 DISK USED  *         1.29 GB      
 SF USED    *       553.73 MB      
 GA USED    *         0.00 MB       (max)       0.00 MB       (current)
 **********************************************************************************************************************************

        UCCSD(T)        RHF-SCF 
   -268.13349612   -267.26535447
 **********************************************************************************************************************************
 Variable memory released
