
 Primary working directories    : /tmp/320938.45.gen4.q
 Secondary working directories  : /tmp/320938.45.gen4.q
 Wavefunction directory         : /home/vulcan/mel64643/wfu/
 Main file repository           : /tmp/320938.45.gen4.q/

 ARCHNAME  : Linux/x86_64
 FC        : /opt/intel/compilers_and_libraries_2016.1.150/linux/bin/intel64/ifort
 FCVERSION : 16.0.1
 BLASLIB   : -mkl
 id        : ccgc

 Nodes     nprocs
 n038         3
 Number of processes for MPI-2 version of Molpro:   nprocs(total)=    4   nprocs(compute)=    3   nprocs(helper)=    1
 ga_uses_ma=false, calling ma_init with nominal heap.
 GA-space will be limited to   8.0 MW (determined by -G option)

 Using customized tuning parameters: mindgm=10; mindgv=16; mindgc=4; mindgr=1; noblas=0; mincuda=1000; minvec=7
 default implementation of scratch files=sf  

 ***,Frequencies for min3
 memory,1000,m
 gthresh,energy=1.0d-10,orbital=1.0d-10,oneint=1.0d-16,twoint=1.0d-16,optgrad=1.0d-6,compress=1.0d-13
 geomtyp=xyz
 
  geometry = {
  12
  arbitrary comment
     C    1.776964391707    0.711398808326   -0.047331391796
     C    0.491811976407   -0.059992870174   -0.197129665366
     C    0.450331042376   -1.536293935297    0.101609264588
     O   -0.560794521494    0.727223516895    0.254650705618
     O   -1.837818950456    0.092275797423   -0.120529858834
     H    2.585454963843    0.211512725107   -0.610883962192
     H    1.658389235516    1.742558662277   -0.426053903791
     H    2.095825216431    0.773609492749    1.018230574787
     H   -0.504703167928   -1.982480413265   -0.220018787597
     H    1.282084835900   -2.047425076054   -0.416717710136
     H    0.561731798732   -1.719164705884    1.195029979145
     H   -1.986992561890    0.551550287484   -0.967269536385
  }
 
 basis=cc-pvdz
 {rhf;maxit,200}
 {uccsd(t);maxit,200}

 Variables initialized (661), CPU time= 0.00 sec
 Commands  initialized (458), CPU time= 0.01 sec, 486 directives.
 Default parameters read. Elapsed time= 0.07 sec

 Checking input...
 Passed
1


                                         ***  PROGRAM SYSTEM MOLPRO  ***
                         Copyright, University College Cardiff Consultants Limited, 2008

                                    Version 2010.1 linked May 16 2016 07:17:05


 **********************************************************************************************************************************
 LABEL *   Frequencies for min3                                                          
 Linux-4.4.3/n038(x86_64) 64 bit mpp version                                             DATE: 07-Mar-20          TIME: 01:12:50  
 **********************************************************************************************************************************

 SHA1:             9e8077add272b0f3cad6f7df79ec5211205f459d
 **********************************************************************************************************************************

 THRESHOLDS:

 ZERO    =  1.00D-12  ONEINT  =  1.00D-16  TWOINT  =  1.00D-16  PREFAC  =  1.00D-14  LOCALI  =  1.00D-09  EORDER  =  1.00D-04
 ENERGY  =  1.00D-10  ETEST   =  0.00D+00  EDENS   =  0.00D+00  THRDEDEF=  1.00D-06  GRADIENT=  1.00D-02  STEP    =  1.00D-03
 ORBITAL =  1.00D-10  CIVEC   =  1.00D-05  COEFF   =  1.00D-04  PRINTCI =  5.00D-02  PUNCHCI =  9.90D+01  OPTGRAD =  1.00D-06
 OPTENERG=  1.00D-06  OPTSTEP =  3.00D-04  THRGRAD =  1.00D-10  COMPRESS=  1.00D-13  VARMIN  =  1.00D-07  VARMAX  =  1.00D-03
 THRDOUB =  0.00D+00  THRDIV  =  1.00D-05  THRRED  =  1.00D-07  THRPSP  =  1.00D+00  THRDC   =  1.00D-10  THRCS   =  1.00D-10
 THRNRM  =  1.00D-08  THREQ   =  0.00D+00  THRDE   =  1.00D+00  THRREF  =  1.00D-05  SPARFAC =  1.00D+00  THRDLP  =  1.00D-07
 THRDIA  =  1.00D-10  THRDLS  =  1.00D-07  THRGPS  =  0.00D+00  THRKEX  =  0.00D+00  THRDIS  =  2.00D-01  THRVAR  =  1.00D-10
 THRLOC  =  1.00D-06  THRGAP  =  1.00D-06  THRLOCT = -1.00D+00  THRGAPT = -1.00D+00  THRORB  =  1.00D-06  THRMLTP =  0.00D+00
 THRCPQCI=  1.00D-10  KEXTA   =  0.00D+00  THRCOARS=  0.00D+00  SYMTOL  =  1.00D-06  GRADTOL =  1.00D-06  THROVL  =  1.00D-08
 THRORTH =  1.00D-08  GRID    =  1.00D-06  GRIDMAX =  1.00D-03  DTMAX   =  0.00D+00

 SETTING GEOMTYP        =    XYZ

 Variable memory set to 1000000000 words,  buffer space   230000 words

 SETTING BASIS          =    CC-PVDZ


 Recomputing integrals since basis changed


 Using spherical harmonics

 Library entry C      S cc-pVDZ              selected for orbital group  1
 Library entry C      P cc-pVDZ              selected for orbital group  1
 Library entry C      D cc-pVDZ              selected for orbital group  1
 Library entry O      S cc-pVDZ              selected for orbital group  2
 Library entry O      P cc-pVDZ              selected for orbital group  2
 Library entry O      D cc-pVDZ              selected for orbital group  2
 Library entry H      S cc-pVDZ              selected for orbital group  3
 Library entry H      P cc-pVDZ              selected for orbital group  3

1PROGRAM * SEWARD (Integral evaluation for generally contracted gaussian basis sets)     Author: Roland Lindh, 1990

 Geometry written to block  1 of record 700


 Point group  C1  



 ATOMIC COORDINATES

 NR  ATOM    CHARGE       X              Y              Z

   1  C       6.00    3.357976046    1.344348918   -0.089443368
   2  C       6.00    0.929389944   -0.113370094   -0.372521080
   3  C       6.00    0.851002339   -2.903174795    0.192013682
   4  O       8.00   -1.059748062    1.374253283    0.481220093
   5  O       8.00   -3.472974495    0.174375986   -0.227768424
   6  H       1.00    4.885801807    0.399701124   -1.154403387
   7  H       1.00    3.133901474    3.292958640   -0.805125195
   8  H       1.00    3.960535678    1.461910074    1.924176925
   9  H       1.00   -0.953750765   -3.746345042   -0.415775252
  10  H       1.00    2.422789217   -3.869072668   -0.787482346
  11  H       1.00    1.061519259   -3.248750469    2.258279379
  12  H       1.00   -3.754871767    1.042278991   -1.827874519

 Bond lengths in Bohr (Angstrom)

 1-2  2.846595891  1-6  2.088241091  1-7  2.087939113  1-8  2.105128362  2-3  2.847429434
     ( 1.506353669)     ( 1.105049592)     ( 1.104889792)     ( 1.113985951)     ( 1.506794761)

  2- 4  2.626512385   3- 9  2.082661091   3-10  2.088752059   3-11  2.105515103   4- 5  2.786760138
       ( 1.389890493)       ( 1.102096783)       ( 1.105319985)       ( 1.114190606)       ( 1.474689952)

  5-12  1.842026388
       ( 0.974758383)

 Bond angles

  1-2-3  120.36450473   1-2-4  108.89006718   2-1-6  109.98832488   2-1-7  110.62646942

  2- 1- 8  111.58747760   2- 3- 9  111.26338896   2- 3-10  109.83921303   2- 3-11  110.64765866

  2- 4- 5  109.22367437   3- 2- 4  118.01041570   4- 5-12   98.66496031   6- 1- 7  109.01956881

  6- 1- 8  107.67727419   7- 1- 8  107.84658164   9- 3-10  109.14869314   9- 3-11  107.85364745

 10- 3-11  108.00267081

 NUCLEAR CHARGE:                   41
 NUMBER OF PRIMITIVE AOS:         184
 NUMBER OF SYMMETRY AOS:          179
 NUMBER OF CONTRACTIONS:          105   ( 105A   )
 NUMBER OF CORE ORBITALS:           5   (   5A   )
 NUMBER OF VALENCE ORBITALS:       27   (  27A   )


 NUCLEAR REPULSION ENERGY  183.21807912


 Eigenvalues of metric

         1 0.345E-02 0.436E-02 0.105E-01 0.141E-01 0.182E-01 0.214E-01 0.331E-01 0.346E-01


 Contracted 2-electron integrals neglected if value below      1.0D-16
 AO integral compression algorithm  1   Integral accuracy      1.0D-16

     127.664 MB (compressed) written to integral file ( 93.2%)

     Node minimum: 29.622 MB, node maximum: 50.332 MB


 NUMBER OF SORTED TWO-ELECTRON INTEGRALS:    5164320.     BUFFER LENGTH:  32768
 NUMBER OF SEGMENTS:   1  SEGMENT LENGTH:    5164320      RECORD LENGTH: 524288

 Memory used in sort:       5.72 MW

 SORT1 READ    17075629. AND WROTE     5135925. INTEGRALS IN     15 RECORDS. CPU TIME:     0.34 SEC, REAL TIME:     0.38 SEC
 SORT2 READ    15396701. AND WROTE    15487395. INTEGRALS IN    546 RECORDS. CPU TIME:     0.11 SEC, REAL TIME:     0.17 SEC

 Node minimum:     5160610.  Node maximum:     5164320. integrals

 OPERATOR DM      FOR CENTER  0  COORDINATES:    0.000000    0.000000    0.000000


 **********************************************************************************************************************************
 DATASETS  * FILE   NREC   LENGTH (MB)   RECORD NAMES
              1      18        3.17       500      610      700      900      950      970     1000      129      960     1100   
                                          VAR    BASINP    GEOM    SYMINP    ZMAT    AOBASIS   BASIS     P2S    ABASIS      S 
                                         1400     1410     1200     1210     1080     1600     1650     1700   
                                           T        V       H0       H01     AOSYM     SMH    MOLCAS    OPER   

 PROGRAMS   *        TOTAL       INT
 CPU TIMES  *         1.54      1.44
 REAL TIME  *         1.86 SEC
 DISK USED  *       317.29 MB      
 GA USED    *         0.00 MB       (max)       0.00 MB       (current)
 **********************************************************************************************************************************

1PROGRAM * RHF-SCF (OPEN SHELL)       Authors: W. Meyer, H.-J. Werner


 NUMBER OF ELECTRONS:      21+   20-    SPACE SYMMETRY=1    SPIN SYMMETRY: Doublet 
 CONVERGENCE THRESHOLDS:    1.00E-10 (Density)    1.00E-11 (Energy)
 MAX. NUMBER OF ITERATIONS:      200
 INTERPOLATION TYPE:            DIIS
 INTERPOLATION STEPS:              2 (START)      1 (STEP)
 LEVEL SHIFTS:                 -0.30 (CLOSED)  0.00 (OPEN) 



 Orbital guess generated from atomic densities. Full valence occupancy:   32

 Molecular orbital dump at record        2100.2

 ITERATION    DDIFF          GRAD             ENERGY        2-EL.EN.            DIPOLE MOMENTS         DIIS
    1      0.000D+00      0.000D+00      -267.17821651    555.808236    0.57014    0.05010   -0.74907    0
    2      0.000D+00      0.617D-02      -267.24890829    555.732444    0.41454   -0.13102   -0.59871    1
    3      0.927D-02      0.214D-02      -267.26107853    555.649887    0.39428   -0.05909   -0.62620    2
    4      0.336D-02      0.912D-03      -267.26468118    555.802222    0.37976   -0.09927   -0.64264    3
    5      0.186D-02      0.363D-03      -267.26524835    555.773611    0.38234   -0.09277   -0.63560    4
    6      0.791D-03      0.110D-03      -267.26532428    555.759827    0.38062   -0.09257   -0.63834    5
    7      0.276D-03      0.510D-04      -267.26534427    555.756821    0.37993   -0.09232   -0.63782    6
    8      0.143D-03      0.272D-04      -267.26535030    555.754872    0.38021   -0.09243   -0.63803    7
    9      0.921D-04      0.115D-04      -267.26535121    555.755182    0.38040   -0.09239   -0.63778    8
   10      0.365D-04      0.500D-05      -267.26535137    555.755795    0.38066   -0.09240   -0.63785    9
   11      0.146D-04      0.196D-05      -267.26535140    555.755638    0.38071   -0.09240   -0.63785    9
   12      0.649D-05      0.669D-06      -267.26535140    555.755772    0.38073   -0.09240   -0.63785    9
   13      0.227D-05      0.226D-06      -267.26535140    555.755688    0.38073   -0.09240   -0.63785    9
   14      0.630D-06      0.755D-07      -267.26535140    555.755697    0.38073   -0.09240   -0.63785    9
   15      0.192D-06      0.299D-07      -267.26535140    555.755692    0.38073   -0.09240   -0.63785    9
   16      0.820D-07      0.144D-07      -267.26535140    555.755694    0.38073   -0.09240   -0.63785    9
   17      0.372D-07      0.746D-08      -267.26535140    555.755694    0.38073   -0.09240   -0.63785    9
   18      0.221D-07      0.340D-08      -267.26535140    555.755694    0.38073   -0.09240   -0.63785    9
   19      0.114D-07      0.132D-08      -267.26535140    555.755694    0.38073   -0.09240   -0.63785    9
   20      0.442D-08      0.563D-09      -267.26535140    555.755694    0.38073   -0.09240   -0.63785    9
   21      0.164D-08      0.285D-09      -267.26535140    555.755694    0.38073   -0.09240   -0.63785    9
   22      0.748D-09      0.161D-09      -267.26535140    555.755694    0.38073   -0.09240   -0.63785    9
   23      0.444D-09      0.792D-10      -267.26535140    555.755694    0.38073   -0.09240   -0.63785    9
   24      0.262D-09      0.314D-10      -267.26535140    555.755694    0.38073   -0.09240   -0.63785    9
   25      0.925D-10      0.128D-10      -267.26535140    555.755694    0.38073   -0.09240   -0.63785    0

 Final alpha occupancy:  21
 Final beta  occupancy:  20

 !RHF STATE 1.1 Energy               -267.265351398611
 Nuclear energy                       183.21807912
 One-electron energy                 -728.36127762
 Two-electron energy                  277.87784710
 Virial quotient                       -1.00156077
 !RHF STATE 1.1 Dipole moment           0.38073184    -0.09240034    -0.63784579
 Dipole moment /Debye                   0.96766042    -0.23484284    -1.62113610

 Orbital energies:

         1.1          2.1          3.1          4.1          5.1          6.1          7.1          8.1          9.1         10.1
    -20.630455   -20.628863   -11.279353   -11.237913   -11.232186    -1.470122    -1.240581    -1.023195    -0.945329    -0.768376

        11.1         12.1         13.1         14.1         15.1         16.1         17.1         18.1         19.1         20.1
     -0.704535    -0.642960    -0.626731    -0.588787    -0.545171    -0.543474    -0.538862    -0.516868    -0.493009    -0.469742

        21.1         22.1         23.1
     -0.352560     0.181266     0.183566


 **********************************************************************************************************************************
 DATASETS  * FILE   NREC   LENGTH (MB)   RECORD NAMES
              1      18        3.17       500      610      700      900      950      970     1000      129      960     1100   
                                          VAR    BASINP    GEOM    SYMINP    ZMAT    AOBASIS   BASIS     P2S    ABASIS      S 
                                         1400     1410     1200     1210     1080     1600     1650     1700   
                                           T        V       H0       H01     AOSYM     SMH    MOLCAS    OPER   

              2       3        0.77       700     1000     2100   
                                         GEOM     BASIS     RHF  

 PROGRAMS   *        TOTAL       RHF       INT
 CPU TIMES  *         3.30      1.76      1.44
 REAL TIME  *         3.79 SEC
 DISK USED  *       333.86 MB      
 SF USED    *         0.04 MB      
 GA USED    *         0.00 MB       (max)       0.00 MB       (current)
 **********************************************************************************************************************************


1PROGRAM * CCSD (Unrestricted open-shell coupled cluster)     Authors: C. Hampel, H.-J. Werner, 1991, M. Deegan, P.J. Knowles, 1992


 Convergence thresholds:  THRVAR = 1.00D-08  THRDEN = 1.00D-10

 CCSD(T)     terms to be evaluated (factor= 1.000)


 Number of core orbitals:           5 (   5 )
 Number of closed-shell orbitals:  15 (  15 )
 Number of active  orbitals:        1 (   1 )
 Number of external orbitals:      84 (  84 )

 Memory could be reduced to 24.91 Mwords without degradation in triples

 Number of N-1 electron functions:              31
 Number of N-2 electron functions:             465
 Number of singly external CSFs:              2635
 Number of doubly external CSFs:           2537250
 Total number of CSFs:                     2539885

 Molecular orbitals read from record     2100.2  Type=RHF/CANONICAL (state 1.1)

 Integral transformation finished. Total CPU:   1.17 sec, npass=  1  Memory used:  12.63 MW

 Starting RMP2 calculation

 ITER.      SQ.NORM     CORR.ENERGY   TOTAL ENERGY   ENERGY CHANGE        DEN1      VAR(S)    VAR(P)  DIIS     TIME
   1      1.24306311    -0.78641202  -268.05176342    -0.78641202    -0.00305080  0.20D-04  0.11D-02  1  1     1.53
   2      1.24570567    -0.78970214  -268.05505354    -0.00329012    -0.00000475  0.54D-06  0.19D-05  2  2     1.87
   3      1.24577126    -0.78974423  -268.05509562    -0.00004209    -0.00000003  0.16D-07  0.68D-08  3  3     2.24
   4      1.24577221    -0.78974423  -268.05509563    -0.00000000    -0.00000000  0.27D-09  0.38D-10  4  4     2.64
   5      1.24577230    -0.78974426  -268.05509566    -0.00000003    -0.00000000  0.25D-11  0.66D-12  5  5     3.07
   6      1.24577231    -0.78974427  -268.05509567    -0.00000001    -0.00000000  0.28D-13  0.87D-14  6  6     3.52
   7      1.24577231    -0.78974427  -268.05509566     0.00000000    -0.00000000  0.47D-15  0.12D-15  6  1     3.98
   8      1.24577231    -0.78974427  -268.05509566     0.00000000    -0.00000000  0.60D-17  0.13D-17  6  2     4.44

 Norm of t1 vector:      0.03890933      S-energy:    -0.00226887      T1 diagnostic:  0.00055057
 Norm of t2 vector:      0.49422502      P-energy:    -0.78747540
                                         Alpha-Beta:  -0.59344835
                                         Alpha-Alpha: -0.10094338
                                         Beta-Beta:   -0.09308367

 Spin contamination <S**2-Sz**2-Sz>     0.00103954
  Reference energy                   -267.265351398611
  RHF-RMP2 correlation energy          -0.789744266234
 !RHF-RMP2 energy                    -268.055095664845

 Starting UCCSD calculation

 ITER.      SQ.NORM     CORR.ENERGY   TOTAL ENERGY   ENERGY CHANGE        DEN1      VAR(S)    VAR(P)  DIIS     TIME
   1      1.26283414    -0.80907373  -268.07442513    -0.80907373    -0.02516231  0.38D-02  0.59D-02  1  1    11.18
   2      1.29161766    -0.83648875  -268.10184015    -0.02741502    -0.00201232  0.22D-03  0.66D-03  2  2    17.88
   3      1.30156423    -0.84098905  -268.10634045    -0.00450030    -0.00032481  0.19D-03  0.56D-04  3  3    24.60
   4      1.30647989    -0.84246704  -268.10781844    -0.00147799    -0.00007210  0.43D-04  0.14D-04  4  4    31.39
   5      1.30920980    -0.84285524  -268.10820664    -0.00038820    -0.00002366  0.19D-04  0.32D-05  5  5    38.22
   6      1.31114807    -0.84305971  -268.10841111    -0.00020446    -0.00000645  0.42D-05  0.12D-05  6  6    45.08
   7      1.31209595    -0.84311842  -268.10846982    -0.00005871    -0.00000207  0.14D-05  0.37D-06  6  2    51.92
   8      1.31253611    -0.84316103  -268.10851243    -0.00004261    -0.00000065  0.44D-06  0.11D-06  6  1    58.74
   9      1.31272019    -0.84316557  -268.10851697    -0.00000454    -0.00000022  0.15D-06  0.35D-07  6  4    65.58
  10      1.31278292    -0.84316849  -268.10851989    -0.00000292    -0.00000005  0.34D-07  0.95D-08  6  3    72.45
  11      1.31281223    -0.84316722  -268.10851862     0.00000127    -0.00000002  0.13D-07  0.28D-08  6  5    79.33
  12      1.31282252    -0.84316696  -268.10851836     0.00000026    -0.00000000  0.26D-08  0.95D-09  6  6    86.15
  13      1.31282138    -0.84316604  -268.10851744     0.00000091    -0.00000000  0.96D-09  0.28D-09  6  2    92.98
  14      1.31281618    -0.84316520  -268.10851660     0.00000084    -0.00000000  0.21D-09  0.67D-10  6  1    99.80
  15      1.31281211    -0.84316462  -268.10851602     0.00000058    -0.00000000  0.78D-10  0.19D-10  6  4   106.62
  16      1.31280893    -0.84316423  -268.10851563     0.00000038    -0.00000000  0.28D-10  0.62D-11  6  3   113.46
  17      1.31280674    -0.84316400  -268.10851540     0.00000024    -0.00000000  0.10D-10  0.24D-11  6  5   120.30
  18      1.31280584    -0.84316394  -268.10851534     0.00000006    -0.00000000  0.40D-11  0.86D-12  6  6   127.13
  19      1.31280523    -0.84316390  -268.10851530     0.00000003    -0.00000000  0.16D-11  0.37D-12  6  2   133.95
  20      1.31280491    -0.84316389  -268.10851529     0.00000001    -0.00000000  0.59D-12  0.13D-12  6  1   140.84
  21      1.31280475    -0.84316388  -268.10851528     0.00000001    -0.00000000  0.28D-12  0.57D-13  6  4   147.65
  22      1.31280463    -0.84316387  -268.10851527     0.00000001    -0.00000000  0.73D-13  0.21D-13  6  3   154.46
  23      1.31280457    -0.84316387  -268.10851527     0.00000000    -0.00000000  0.21D-13  0.62D-14  6  5   161.35
  24      1.31280457    -0.84316387  -268.10851527    -0.00000000    -0.00000000  0.67D-14  0.22D-14  6  6   168.19
  25      1.31280457    -0.84316387  -268.10851527    -0.00000000    -0.00000000  0.21D-14  0.52D-15  6  2   175.02
  26      1.31280458    -0.84316387  -268.10851527    -0.00000000    -0.00000000  0.76D-15  0.15D-15  6  1   181.92
  27      1.31280459    -0.84316387  -268.10851527    -0.00000000    -0.00000000  0.20D-15  0.62D-16  6  3   188.76
  28      1.31280459    -0.84316387  -268.10851527    -0.00000000    -0.00000000  0.29D-16  0.11D-16  6  4   195.60
  29      1.31280460    -0.84316387  -268.10851527    -0.00000000    -0.00000000  0.70D-17  0.29D-17  6  5   202.43
  30      1.31280460    -0.84316387  -268.10851527    -0.00000000    -0.00000000  0.15D-17  0.53D-18  6  6   209.28
  31      1.31280460    -0.84316387  -268.10851527    -0.00000000    -0.00000000  0.35D-18  0.10D-18  6  2   216.11

 Norm of t1 vector:      0.13871025      S-energy:    -0.00281789      T1 diagnostic:  0.01617039
                                                                       D1 diagnostic:  0.06285316
 Norm of t2 vector:      0.54181552      P-energy:    -0.84034598
                                         Alpha-Beta:  -0.66490159
                                         Alpha-Alpha: -0.09147283
                                         Beta-Beta:   -0.08397156

 Spin contamination <S**2-Sz**2-Sz>     0.00216685

 Memory could be reduced to 28.85 Mwords without degradation in triples
 

 RESULTS
 =======

  Reference energy                   -267.265351398611
  UCCSD singles energy                 -0.002817892272
  UCCSD pair energy                    -0.840345981574
  UCCSD correlation energy             -0.843163873846
  Triples (T) contribution             -0.024981112916
  Total correlation energy             -0.868144986762
 
  RHF-UCCSD energy                   -268.108515272456
  RHF-UCCSD[T] energy                -268.134833169733
  RHF-UCCSD-T energy                 -268.133074446746
 !RHF-UCCSD(T) energy                -268.133496385373

 Program statistics:

 Available memory in ccsd:               999997692
 Min. memory needed in ccsd:               7337057
 Max. memory used in ccsd:                10523002
 Max. memory used in cckext:              10867977 (31 integral passes)
 Max. memory used in cckint:              12633073 ( 1 integral passes)



 **********************************************************************************************************************************
 DATASETS  * FILE   NREC   LENGTH (MB)   RECORD NAMES
              1      18        3.17       500      610      700      900      950      970     1000      129      960     1100   
                                          VAR    BASINP    GEOM    SYMINP    ZMAT    AOBASIS   BASIS     P2S    ABASIS      S 
                                         1400     1410     1200     1210     1080     1600     1650     1700   
                                           T        V       H0       H01     AOSYM     SMH    MOLCAS    OPER   

              2       3        0.77       700     1000     2100   
                                         GEOM     BASIS     RHF  

 PROGRAMS   *        TOTAL  UCCSD(T)       RHF       INT
 CPU TIMES  *       280.50    277.20      1.76      1.44
 REAL TIME  *       294.50 SEC
 DISK USED  *         1.30 GB      
 SF USED    *       553.73 MB      
 GA USED    *         0.00 MB       (max)       0.00 MB       (current)
 **********************************************************************************************************************************

        UCCSD(T)        RHF-SCF 
   -268.13349639   -267.26535140
 **********************************************************************************************************************************
 Variable memory released
