
 Primary working directories    : /tmp/320938.62.gen4.q
 Secondary working directories  : /tmp/320938.62.gen4.q
 Wavefunction directory         : /home/vulcan/mel64643/wfu/
 Main file repository           : /tmp/320938.62.gen4.q/

 ARCHNAME  : Linux/x86_64
 FC        : /opt/intel/compilers_and_libraries_2016.1.150/linux/bin/intel64/ifort
 FCVERSION : 16.0.1
 BLASLIB   : -mkl
 id        : ccgc

 Nodes     nprocs
 n022         3
 Number of processes for MPI-2 version of Molpro:   nprocs(total)=    4   nprocs(compute)=    3   nprocs(helper)=    1
 ga_uses_ma=false, calling ma_init with nominal heap.
 GA-space will be limited to   8.0 MW (determined by -G option)

 Using customized tuning parameters: mindgm=10; mindgv=16; mindgc=4; mindgr=1; noblas=0; mincuda=1000; minvec=7
 default implementation of scratch files=sf  

 ***,Frequencies for min3
 memory,1000,m
 gthresh,energy=1.0d-10,orbital=1.0d-10,oneint=1.0d-16,twoint=1.0d-16,optgrad=1.0d-6,compress=1.0d-13
 geomtyp=xyz
 
  geometry = {
  12
  arbitrary comment
     C    1.776964391707    0.711398808326   -0.047331391796
     C    0.491811976407   -0.059992870174   -0.196493901896
     C    0.450332819107   -1.535686371559    0.101422525407
     O   -0.560226334538    0.727035349418    0.254471933278
     O   -1.838209905242    0.092122274489   -0.120587801043
     H    2.585033722592    0.211156308866   -0.611264057221
     H    1.660135666603    1.742611509572   -0.426386733780
     H    2.094720298906    0.773738838036    1.017807898261
     H   -0.505314725590   -1.982972568763   -0.220093541861
     H    1.281458357309   -2.047466913020   -0.417074964911
     H    0.561277012577   -1.719421984747    1.194793271364
     H   -1.988353970173    0.550704499916   -0.967054841634
  }
 
 basis=cc-pvdz
 {rhf;maxit,200}
 {uccsd(t);maxit,200}

 Variables initialized (661), CPU time= 0.00 sec
 Commands  initialized (458), CPU time= 0.01 sec, 486 directives.
 Default parameters read. Elapsed time= 0.05 sec

 Checking input...
 Passed
1


                                         ***  PROGRAM SYSTEM MOLPRO  ***
                         Copyright, University College Cardiff Consultants Limited, 2008

                                    Version 2010.1 linked May 16 2016 07:17:05


 **********************************************************************************************************************************
 LABEL *   Frequencies for min3                                                          
 Linux-4.4.3/n022(x86_64) 64 bit mpp version                                             DATE: 07-Mar-20          TIME: 01:18:35  
 **********************************************************************************************************************************

 SHA1:             9e8077add272b0f3cad6f7df79ec5211205f459d
 **********************************************************************************************************************************

 THRESHOLDS:

 ZERO    =  1.00D-12  ONEINT  =  1.00D-16  TWOINT  =  1.00D-16  PREFAC  =  1.00D-14  LOCALI  =  1.00D-09  EORDER  =  1.00D-04
 ENERGY  =  1.00D-10  ETEST   =  0.00D+00  EDENS   =  0.00D+00  THRDEDEF=  1.00D-06  GRADIENT=  1.00D-02  STEP    =  1.00D-03
 ORBITAL =  1.00D-10  CIVEC   =  1.00D-05  COEFF   =  1.00D-04  PRINTCI =  5.00D-02  PUNCHCI =  9.90D+01  OPTGRAD =  1.00D-06
 OPTENERG=  1.00D-06  OPTSTEP =  3.00D-04  THRGRAD =  1.00D-10  COMPRESS=  1.00D-13  VARMIN  =  1.00D-07  VARMAX  =  1.00D-03
 THRDOUB =  0.00D+00  THRDIV  =  1.00D-05  THRRED  =  1.00D-07  THRPSP  =  1.00D+00  THRDC   =  1.00D-10  THRCS   =  1.00D-10
 THRNRM  =  1.00D-08  THREQ   =  0.00D+00  THRDE   =  1.00D+00  THRREF  =  1.00D-05  SPARFAC =  1.00D+00  THRDLP  =  1.00D-07
 THRDIA  =  1.00D-10  THRDLS  =  1.00D-07  THRGPS  =  0.00D+00  THRKEX  =  0.00D+00  THRDIS  =  2.00D-01  THRVAR  =  1.00D-10
 THRLOC  =  1.00D-06  THRGAP  =  1.00D-06  THRLOCT = -1.00D+00  THRGAPT = -1.00D+00  THRORB  =  1.00D-06  THRMLTP =  0.00D+00
 THRCPQCI=  1.00D-10  KEXTA   =  0.00D+00  THRCOARS=  0.00D+00  SYMTOL  =  1.00D-06  GRADTOL =  1.00D-06  THROVL  =  1.00D-08
 THRORTH =  1.00D-08  GRID    =  1.00D-06  GRIDMAX =  1.00D-03  DTMAX   =  0.00D+00

 SETTING GEOMTYP        =    XYZ

 Variable memory set to 1000000000 words,  buffer space   230000 words

 SETTING BASIS          =    CC-PVDZ


 Recomputing integrals since basis changed


 Using spherical harmonics

 Library entry C      S cc-pVDZ              selected for orbital group  1
 Library entry C      P cc-pVDZ              selected for orbital group  1
 Library entry C      D cc-pVDZ              selected for orbital group  1
 Library entry O      S cc-pVDZ              selected for orbital group  2
 Library entry O      P cc-pVDZ              selected for orbital group  2
 Library entry O      D cc-pVDZ              selected for orbital group  2
 Library entry H      S cc-pVDZ              selected for orbital group  3
 Library entry H      P cc-pVDZ              selected for orbital group  3

1PROGRAM * SEWARD (Integral evaluation for generally contracted gaussian basis sets)     Author: Roland Lindh, 1990

 Geometry written to block  1 of record 700


 Point group  C1  



 ATOMIC COORDINATES

 NR  ATOM    CHARGE       X              Y              Z

   1  C       6.00    3.357976046    1.344348918   -0.089443368
   2  C       6.00    0.929389944   -0.113370094   -0.371319661
   3  C       6.00    0.851005696   -2.902026666    0.191660797
   4  O       8.00   -1.058674344    1.373897698    0.480882262
   5  O       8.00   -3.473713293    0.174085869   -0.227877919
   6  H       1.00    4.885005776    0.399027595   -1.155121662
   7  H       1.00    3.137201751    3.293058507   -0.805754153
   8  H       1.00    3.958447687    1.462154501    1.923378182
   9  H       1.00   -0.954906442   -3.747275081   -0.415916517
  10  H       1.00    2.421605344   -3.869151729   -0.788157460
  11  H       1.00    1.060659838   -3.249236656    2.257832067
  12  H       1.00   -3.757444456    1.040680684   -1.827468805

 Bond lengths in Bohr (Angstrom)

 1-2  2.846476668  1-6  2.088330058  1-7  2.087896427  1-8  2.103781105  2-3  2.845996585
     ( 1.506290578)     ( 1.105096671)     ( 1.104867204)     ( 1.113273014)     ( 1.506036529)

  2- 4  2.624997755   3- 9  2.084445664   3-10  2.088577975   3-11  2.105605222   4- 5  2.788243631
       ( 1.389088986)       ( 1.103041139)       ( 1.105227864)       ( 1.114238295)       ( 1.475474983)

  5-12  1.841244402
       ( 0.974344574)

 Bond angles

  1-2-3  120.37817739   1-2-4  108.89709806   2-1-6  109.96945916   2-1-7  110.71893456

  2- 1- 8  111.52723821   2- 3- 9  111.31745811   2- 3-10  109.88980664   2- 3-11  110.66745859

  2- 4- 5  109.24796550   3- 2- 4  118.03975213   4- 5-12   98.72990794   6- 1- 7  108.94971199

  6- 1- 8  107.75080465   7- 1- 8  107.82803226   9- 3-10  109.08658335   9- 3-11  107.78347045

 10- 3-11  108.00580432

 NUCLEAR CHARGE:                   41
 NUMBER OF PRIMITIVE AOS:         184
 NUMBER OF SYMMETRY AOS:          179
 NUMBER OF CONTRACTIONS:          105   ( 105A   )
 NUMBER OF CORE ORBITALS:           5   (   5A   )
 NUMBER OF VALENCE ORBITALS:       27   (  27A   )


 NUCLEAR REPULSION ENERGY  183.22919149


 Eigenvalues of metric

         1 0.345E-02 0.435E-02 0.105E-01 0.141E-01 0.182E-01 0.214E-01 0.331E-01 0.345E-01


 Contracted 2-electron integrals neglected if value below      1.0D-16
 AO integral compression algorithm  1   Integral accuracy      1.0D-16

     127.402 MB (compressed) written to integral file ( 93.4%)

     Node minimum: 40.894 MB, node maximum: 44.040 MB


 NUMBER OF SORTED TWO-ELECTRON INTEGRALS:    5164320.     BUFFER LENGTH:  32768
 NUMBER OF SEGMENTS:   1  SEGMENT LENGTH:    5164320      RECORD LENGTH: 524288

 Memory used in sort:       5.72 MW

 SORT1 READ    17075251. AND WROTE     5135899. INTEGRALS IN     15 RECORDS. CPU TIME:     0.23 SEC, REAL TIME:     0.27 SEC
 SORT2 READ    15396631. AND WROTE    15487395. INTEGRALS IN    486 RECORDS. CPU TIME:     0.07 SEC, REAL TIME:     0.12 SEC

 Node minimum:     5160610.  Node maximum:     5164320. integrals

 OPERATOR DM      FOR CENTER  0  COORDINATES:    0.000000    0.000000    0.000000


 **********************************************************************************************************************************
 DATASETS  * FILE   NREC   LENGTH (MB)   RECORD NAMES
              1      18        3.17       500      610      700      900      950      970     1000      129      960     1100   
                                          VAR    BASINP    GEOM    SYMINP    ZMAT    AOBASIS   BASIS     P2S    ABASIS      S 
                                         1400     1410     1200     1210     1080     1600     1650     1700   
                                           T        V       H0       H01     AOSYM     SMH    MOLCAS    OPER   

 PROGRAMS   *        TOTAL       INT
 CPU TIMES  *         1.27      1.21
 REAL TIME  *         1.55 SEC
 DISK USED  *       305.76 MB      
 GA USED    *         0.00 MB       (max)       0.00 MB       (current)
 **********************************************************************************************************************************

1PROGRAM * RHF-SCF (OPEN SHELL)       Authors: W. Meyer, H.-J. Werner


 NUMBER OF ELECTRONS:      21+   20-    SPACE SYMMETRY=1    SPIN SYMMETRY: Doublet 
 CONVERGENCE THRESHOLDS:    1.00E-10 (Density)    1.00E-11 (Energy)
 MAX. NUMBER OF ITERATIONS:      200
 INTERPOLATION TYPE:            DIIS
 INTERPOLATION STEPS:              2 (START)      1 (STEP)
 LEVEL SHIFTS:                 -0.30 (CLOSED)  0.00 (OPEN) 



 Orbital guess generated from atomic densities. Full valence occupancy:   32

 Molecular orbital dump at record        2100.2

 ITERATION    DDIFF          GRAD             ENERGY        2-EL.EN.            DIPOLE MOMENTS         DIIS
    1      0.000D+00      0.000D+00      -267.17809734    555.837585    0.57259    0.04835   -0.74964    0
    2      0.000D+00      0.617D-02      -267.24879594    555.750968    0.41396   -0.13117   -0.59829    1
    3      0.928D-02      0.214D-02      -267.26100789    555.670652    0.39374   -0.05898   -0.62595    2
    4      0.337D-02      0.913D-03      -267.26463997    555.822604    0.37877   -0.09902   -0.64241    3
    5      0.186D-02      0.364D-03      -267.26521576    555.793891    0.38126   -0.09249   -0.63545    4
    6      0.795D-03      0.111D-03      -267.26529369    555.780249    0.37950   -0.09229   -0.63823    5
    7      0.279D-03      0.516D-04      -267.26531431    555.777197    0.37876   -0.09202   -0.63773    6
    8      0.145D-03      0.275D-04      -267.26532051    555.775269    0.37902   -0.09214   -0.63795    7
    9      0.935D-04      0.116D-04      -267.26532145    555.775581    0.37921   -0.09210   -0.63771    8
   10      0.369D-04      0.507D-05      -267.26532161    555.776199    0.37947   -0.09211   -0.63777    9
   11      0.148D-04      0.198D-05      -267.26532163    555.776037    0.37952   -0.09211   -0.63778    9
   12      0.658D-05      0.676D-06      -267.26532164    555.776172    0.37954   -0.09211   -0.63777    9
   13      0.229D-05      0.228D-06      -267.26532164    555.776087    0.37954   -0.09211   -0.63777    9
   14      0.635D-06      0.766D-07      -267.26532164    555.776096    0.37954   -0.09211   -0.63777    9
   15      0.195D-06      0.305D-07      -267.26532164    555.776092    0.37954   -0.09211   -0.63777    9
   16      0.837D-07      0.148D-07      -267.26532164    555.776093    0.37954   -0.09211   -0.63777    9
   17      0.381D-07      0.764D-08      -267.26532164    555.776093    0.37954   -0.09211   -0.63777    9
   18      0.227D-07      0.346D-08      -267.26532164    555.776093    0.37954   -0.09211   -0.63777    9
   19      0.116D-07      0.135D-08      -267.26532164    555.776093    0.37954   -0.09211   -0.63777    9
   20      0.450D-08      0.579D-09      -267.26532164    555.776094    0.37954   -0.09211   -0.63777    9
   21      0.169D-08      0.293D-09      -267.26532164    555.776094    0.37954   -0.09211   -0.63777    9
   22      0.773D-09      0.165D-09      -267.26532164    555.776094    0.37954   -0.09211   -0.63777    9
   23      0.455D-09      0.813D-10      -267.26532164    555.776094    0.37954   -0.09211   -0.63777    9
   24      0.269D-09      0.325D-10      -267.26532164    555.776094    0.37954   -0.09211   -0.63777    9
   25      0.955D-10      0.132D-10      -267.26532164    555.776094    0.37954   -0.09211   -0.63777    0

 Final alpha occupancy:  21
 Final beta  occupancy:  20

 !RHF STATE 1.1 Energy               -267.265321637186
 Nuclear energy                       183.22919149
 One-electron energy                 -728.38255989
 Two-electron energy                  277.88804676
 Virial quotient                       -1.00155457
 !RHF STATE 1.1 Dipole moment           0.37954389    -0.09210972    -0.63777245
 Dipole moment /Debye                   0.96464117    -0.23410423    -1.62094969

 Orbital energies:

         1.1          2.1          3.1          4.1          5.1          6.1          7.1          8.1          9.1         10.1
    -20.630555   -20.628892   -11.279196   -11.237830   -11.232194    -1.469964    -1.241019    -1.023259    -0.945352    -0.768450

        11.1         12.1         13.1         14.1         15.1         16.1         17.1         18.1         19.1         20.1
     -0.704528    -0.642989    -0.626746    -0.588892    -0.544976    -0.543380    -0.539016    -0.516927    -0.493172    -0.469791

        21.1         22.1         23.1
     -0.352208     0.181263     0.183406


 **********************************************************************************************************************************
 DATASETS  * FILE   NREC   LENGTH (MB)   RECORD NAMES
              1      18        3.17       500      610      700      900      950      970     1000      129      960     1100   
                                          VAR    BASINP    GEOM    SYMINP    ZMAT    AOBASIS   BASIS     P2S    ABASIS      S 
                                         1400     1410     1200     1210     1080     1600     1650     1700   
                                           T        V       H0       H01     AOSYM     SMH    MOLCAS    OPER   

              2       3        0.77       700     1000     2100   
                                         GEOM     BASIS     RHF  

 PROGRAMS   *        TOTAL       RHF       INT
 CPU TIMES  *         2.58      1.31      1.21
 REAL TIME  *         3.01 SEC
 DISK USED  *       322.32 MB      
 SF USED    *         0.04 MB      
 GA USED    *         0.00 MB       (max)       0.00 MB       (current)
 **********************************************************************************************************************************


1PROGRAM * CCSD (Unrestricted open-shell coupled cluster)     Authors: C. Hampel, H.-J. Werner, 1991, M. Deegan, P.J. Knowles, 1992


 Convergence thresholds:  THRVAR = 1.00D-08  THRDEN = 1.00D-10

 CCSD(T)     terms to be evaluated (factor= 1.000)


 Number of core orbitals:           5 (   5 )
 Number of closed-shell orbitals:  15 (  15 )
 Number of active  orbitals:        1 (   1 )
 Number of external orbitals:      84 (  84 )

 Memory could be reduced to 24.91 Mwords without degradation in triples

 Number of N-1 electron functions:              31
 Number of N-2 electron functions:             465
 Number of singly external CSFs:              2635
 Number of doubly external CSFs:           2537250
 Total number of CSFs:                     2539885

 Molecular orbitals read from record     2100.2  Type=RHF/CANONICAL (state 1.1)

 Integral transformation finished. Total CPU:   1.58 sec, npass=  1  Memory used:  12.63 MW

 Starting RMP2 calculation

 ITER.      SQ.NORM     CORR.ENERGY   TOTAL ENERGY   ENERGY CHANGE        DEN1      VAR(S)    VAR(P)  DIIS     TIME
   1      1.24308107    -0.78643941  -268.05176105    -0.78643941    -0.00305080  0.20D-04  0.11D-02  1  1     2.08
   2      1.24572421    -0.78972953  -268.05505117    -0.00329012    -0.00000475  0.54D-06  0.19D-05  2  2     2.50
   3      1.24578988    -0.78977166  -268.05509329    -0.00004213    -0.00000003  0.16D-07  0.68D-08  3  3     2.95
   4      1.24579084    -0.78977166  -268.05509330    -0.00000000    -0.00000000  0.27D-09  0.38D-10  4  4     3.44
   5      1.24579092    -0.78977169  -268.05509333    -0.00000003    -0.00000000  0.25D-11  0.65D-12  5  5     3.94
   6      1.24579093    -0.78977170  -268.05509333    -0.00000001    -0.00000000  0.28D-13  0.87D-14  6  6     4.48
   7      1.24579093    -0.78977170  -268.05509333     0.00000000    -0.00000000  0.47D-15  0.12D-15  6  1     5.04
   8      1.24579093    -0.78977170  -268.05509333     0.00000000    -0.00000000  0.60D-17  0.13D-17  6  2     5.59

 Norm of t1 vector:      0.03893762      S-energy:    -0.00227205      T1 diagnostic:  0.00055055
 Norm of t2 vector:      0.49424164      P-energy:    -0.78749965
                                         Alpha-Beta:  -0.59346284
                                         Alpha-Alpha: -0.10094922
                                         Beta-Beta:   -0.09308759

 Spin contamination <S**2-Sz**2-Sz>     0.00104038
  Reference energy                   -267.265321637185
  RHF-RMP2 correlation energy          -0.789771697040
 !RHF-RMP2 energy                    -268.055093334225

 Starting UCCSD calculation

 ITER.      SQ.NORM     CORR.ENERGY   TOTAL ENERGY   ENERGY CHANGE        DEN1      VAR(S)    VAR(P)  DIIS     TIME
   1      1.26284382    -0.80909011  -268.07441175    -0.80909011    -0.02516485  0.38D-02  0.59D-02  1  1    15.59
   2      1.29163454    -0.83650670  -268.10182833    -0.02741658    -0.00201334  0.22D-03  0.66D-03  2  2    25.20
   3      1.30158935    -0.84100911  -268.10633075    -0.00450242    -0.00032508  0.19D-03  0.56D-04  3  3    34.78
   4      1.30651343    -0.84248832  -268.10780995    -0.00147920    -0.00007225  0.43D-04  0.14D-04  4  4    44.30
   5      1.30925077    -0.84287721  -268.10819885    -0.00038889    -0.00002376  0.19D-04  0.33D-05  5  5    54.03
   6      1.31119786    -0.84308232  -268.10840395    -0.00020511    -0.00000650  0.42D-05  0.12D-05  6  6    61.10
   7      1.31215323    -0.84314139  -268.10846303    -0.00005907    -0.00000210  0.14D-05  0.37D-06  6  2    67.93
   8      1.31259943    -0.84318437  -268.10850600    -0.00004298    -0.00000066  0.45D-06  0.11D-06  6  1    75.00
   9      1.31278758    -0.84318906  -268.10851070    -0.00000469    -0.00000022  0.16D-06  0.35D-07  6  4    81.84
  10      1.31285195    -0.84319203  -268.10851367    -0.00000297    -0.00000005  0.35D-07  0.97D-08  6  3    88.66
  11      1.31288202    -0.84319079  -268.10851242     0.00000125    -0.00000002  0.13D-07  0.28D-08  6  5    95.50
  12      1.31289263    -0.84319054  -268.10851217     0.00000025    -0.00000000  0.26D-08  0.97D-09  6  6   102.32
  13      1.31289151    -0.84318961  -268.10851125     0.00000092    -0.00000000  0.98D-09  0.29D-09  6  2   109.13
  14      1.31288627    -0.84318876  -268.10851040     0.00000085    -0.00000000  0.21D-09  0.68D-10  6  1   115.99
  15      1.31288216    -0.84318817  -268.10850981     0.00000059    -0.00000000  0.79D-10  0.19D-10  6  4   122.41
  16      1.31287894    -0.84318778  -268.10850942     0.00000039    -0.00000000  0.29D-10  0.64D-11  6  3   129.28
  17      1.31287672    -0.84318754  -268.10850918     0.00000024    -0.00000000  0.10D-10  0.24D-11  6  5   136.10
  18      1.31287580    -0.84318748  -268.10850912     0.00000006    -0.00000000  0.42D-11  0.89D-12  6  6   142.95
  19      1.31287518    -0.84318745  -268.10850908     0.00000003    -0.00000000  0.16D-11  0.38D-12  6  2   150.74
  20      1.31287485    -0.84318744  -268.10850907     0.00000001    -0.00000000  0.61D-12  0.13D-12  6  1   160.78
  21      1.31287469    -0.84318743  -268.10850906     0.00000001    -0.00000000  0.29D-12  0.59D-13  6  4   170.65
  22      1.31287456    -0.84318742  -268.10850905     0.00000001    -0.00000000  0.76D-13  0.22D-13  6  3   180.36
  23      1.31287450    -0.84318741  -268.10850905     0.00000000    -0.00000000  0.22D-13  0.64D-14  6  5   190.07
  24      1.31287450    -0.84318741  -268.10850905    -0.00000000    -0.00000000  0.69D-14  0.23D-14  6  6   199.82
  25      1.31287450    -0.84318742  -268.10850905    -0.00000000    -0.00000000  0.22D-14  0.54D-15  6  2   209.64
  26      1.31287451    -0.84318742  -268.10850905    -0.00000000    -0.00000000  0.79D-15  0.16D-15  6  1   219.39
  27      1.31287452    -0.84318742  -268.10850905    -0.00000000    -0.00000000  0.20D-15  0.64D-16  6  3   229.11
  28      1.31287452    -0.84318742  -268.10850905    -0.00000000    -0.00000000  0.31D-16  0.11D-16  6  4   238.83
  29      1.31287453    -0.84318742  -268.10850905    -0.00000000    -0.00000000  0.73D-17  0.30D-17  6  5   248.61
  30      1.31287453    -0.84318742  -268.10850905    -0.00000000    -0.00000000  0.16D-17  0.56D-18  6  6   258.28
  31      1.31287453    -0.84318742  -268.10850905    -0.00000000    -0.00000000  0.37D-18  0.11D-18  6  2   268.19

 Norm of t1 vector:      0.13885157      S-energy:    -0.00282231      T1 diagnostic:  0.01618478
                                                                       D1 diagnostic:  0.06282834
 Norm of t2 vector:      0.54184386      P-energy:    -0.84036511
                                         Alpha-Beta:  -0.66491423
                                         Alpha-Alpha: -0.09147711
                                         Beta-Beta:   -0.08397377

 Spin contamination <S**2-Sz**2-Sz>     0.00218451

 Memory could be reduced to 28.85 Mwords without degradation in triples
 

 RESULTS
 =======

  Reference energy                   -267.265321637185
  UCCSD singles energy                 -0.002822308054
  UCCSD pair energy                    -0.840365109735
  UCCSD correlation energy             -0.843187417789
  Triples (T) contribution             -0.024987725488
  Total correlation energy             -0.868175143277
 
  RHF-UCCSD energy                   -268.108509054974
  RHF-UCCSD[T] energy                -268.134833464163
  RHF-UCCSD-T energy                 -268.133075607646
 !RHF-UCCSD(T) energy                -268.133496780462

 Program statistics:

 Available memory in ccsd:               999997692
 Min. memory needed in ccsd:               7337057
 Max. memory used in ccsd:                10523002
 Max. memory used in cckext:              10867977 (31 integral passes)
 Max. memory used in cckint:              12633073 ( 1 integral passes)



 **********************************************************************************************************************************
 DATASETS  * FILE   NREC   LENGTH (MB)   RECORD NAMES
              1      18        3.17       500      610      700      900      950      970     1000      129      960     1100   
                                          VAR    BASINP    GEOM    SYMINP    ZMAT    AOBASIS   BASIS     P2S    ABASIS      S 
                                         1400     1410     1200     1210     1080     1600     1650     1700   
                                           T        V       H0       H01     AOSYM     SMH    MOLCAS    OPER   

              2       3        0.77       700     1000     2100   
                                         GEOM     BASIS     RHF  

 PROGRAMS   *        TOTAL  UCCSD(T)       RHF       INT
 CPU TIMES  *       334.46    331.88      1.31      1.21
 REAL TIME  *       348.98 SEC
 DISK USED  *         1.29 GB      
 SF USED    *       553.73 MB      
 GA USED    *         0.00 MB       (max)       0.00 MB       (current)
 **********************************************************************************************************************************

        UCCSD(T)        RHF-SCF 
   -268.13349678   -267.26532164
 **********************************************************************************************************************************
 Variable memory released
