
 Primary working directories    : /tmp/320938.37.gen4.q
 Secondary working directories  : /tmp/320938.37.gen4.q
 Wavefunction directory         : /home/vulcan/mel64643/wfu/
 Main file repository           : /tmp/320938.37.gen4.q/

 ARCHNAME  : Linux/x86_64
 FC        : /opt/intel/compilers_and_libraries_2016.1.150/linux/bin/intel64/ifort
 FCVERSION : 16.0.1
 BLASLIB   : -mkl
 id        : ccgc

 Nodes     nprocs
 n063         3
 Number of processes for MPI-2 version of Molpro:   nprocs(total)=    4   nprocs(compute)=    3   nprocs(helper)=    1
 ga_uses_ma=false, calling ma_init with nominal heap.
 GA-space will be limited to   8.0 MW (determined by -G option)

 Using customized tuning parameters: mindgm=10; mindgv=16; mindgc=4; mindgr=1; noblas=0; mincuda=1000; minvec=7
 default implementation of scratch files=sf  

 ***,Frequencies for min3
 memory,1000,m
 gthresh,energy=1.0d-10,orbital=1.0d-10,oneint=1.0d-16,twoint=1.0d-16,optgrad=1.0d-6,compress=1.0d-13
 geomtyp=xyz
 
  geometry = {
  12
  arbitrary comment
     C    1.776964391707    0.711398808326   -0.047331391796
     C    0.491811976407   -0.059992870174   -0.196493901896
     C    0.450332819107   -1.536294019674    0.101844115986
     O   -0.560753468077    0.727165671205    0.254453901809
     O   -1.837855844721    0.092303397597   -0.120605885684
     H    2.585294843272    0.211788020616   -0.612010146293
     H    1.660332462476    1.743120202259   -0.426435737092
     H    2.095229464930    0.773769338905    1.017344073699
     H   -0.504847229936   -1.982672596831   -0.219158658309
     H    1.282431731548   -2.046272530194   -0.418971845509
     H    0.561334663843   -1.720441223566    1.192937786582
     H   -1.988072779523    0.551350784184   -0.967425060781
  }
 
 basis=cc-pvdz
 {rhf;maxit,200}
 {uccsd(t);maxit,200}

 Variables initialized (661), CPU time= 0.00 sec
 Commands  initialized (458), CPU time= 0.01 sec, 486 directives.
 Default parameters read. Elapsed time= 0.06 sec

 Checking input...
 Passed
1


                                         ***  PROGRAM SYSTEM MOLPRO  ***
                         Copyright, University College Cardiff Consultants Limited, 2008

                                    Version 2010.1 linked May 16 2016 07:17:05


 **********************************************************************************************************************************
 LABEL *   Frequencies for min3                                                          
 Linux-4.4.3/n063(x86_64) 64 bit mpp version                                             DATE: 07-Mar-20          TIME: 01:09:35  
 **********************************************************************************************************************************

 SHA1:             9e8077add272b0f3cad6f7df79ec5211205f459d
 **********************************************************************************************************************************

 THRESHOLDS:

 ZERO    =  1.00D-12  ONEINT  =  1.00D-16  TWOINT  =  1.00D-16  PREFAC  =  1.00D-14  LOCALI  =  1.00D-09  EORDER  =  1.00D-04
 ENERGY  =  1.00D-10  ETEST   =  0.00D+00  EDENS   =  0.00D+00  THRDEDEF=  1.00D-06  GRADIENT=  1.00D-02  STEP    =  1.00D-03
 ORBITAL =  1.00D-10  CIVEC   =  1.00D-05  COEFF   =  1.00D-04  PRINTCI =  5.00D-02  PUNCHCI =  9.90D+01  OPTGRAD =  1.00D-06
 OPTENERG=  1.00D-06  OPTSTEP =  3.00D-04  THRGRAD =  1.00D-10  COMPRESS=  1.00D-13  VARMIN  =  1.00D-07  VARMAX  =  1.00D-03
 THRDOUB =  0.00D+00  THRDIV  =  1.00D-05  THRRED  =  1.00D-07  THRPSP  =  1.00D+00  THRDC   =  1.00D-10  THRCS   =  1.00D-10
 THRNRM  =  1.00D-08  THREQ   =  0.00D+00  THRDE   =  1.00D+00  THRREF  =  1.00D-05  SPARFAC =  1.00D+00  THRDLP  =  1.00D-07
 THRDIA  =  1.00D-10  THRDLS  =  1.00D-07  THRGPS  =  0.00D+00  THRKEX  =  0.00D+00  THRDIS  =  2.00D-01  THRVAR  =  1.00D-10
 THRLOC  =  1.00D-06  THRGAP  =  1.00D-06  THRLOCT = -1.00D+00  THRGAPT = -1.00D+00  THRORB  =  1.00D-06  THRMLTP =  0.00D+00
 THRCPQCI=  1.00D-10  KEXTA   =  0.00D+00  THRCOARS=  0.00D+00  SYMTOL  =  1.00D-06  GRADTOL =  1.00D-06  THROVL  =  1.00D-08
 THRORTH =  1.00D-08  GRID    =  1.00D-06  GRIDMAX =  1.00D-03  DTMAX   =  0.00D+00

 SETTING GEOMTYP        =    XYZ

 Variable memory set to 1000000000 words,  buffer space   230000 words

 SETTING BASIS          =    CC-PVDZ


 Recomputing integrals since basis changed


 Using spherical harmonics

 Library entry C      S cc-pVDZ              selected for orbital group  1
 Library entry C      P cc-pVDZ              selected for orbital group  1
 Library entry C      D cc-pVDZ              selected for orbital group  1
 Library entry O      S cc-pVDZ              selected for orbital group  2
 Library entry O      P cc-pVDZ              selected for orbital group  2
 Library entry O      D cc-pVDZ              selected for orbital group  2
 Library entry H      S cc-pVDZ              selected for orbital group  3
 Library entry H      P cc-pVDZ              selected for orbital group  3

1PROGRAM * SEWARD (Integral evaluation for generally contracted gaussian basis sets)     Author: Roland Lindh, 1990

 Geometry written to block  1 of record 700


 Point group  C1  



 ATOMIC COORDINATES

 NR  ATOM    CHARGE       X              Y              Z

   1  C       6.00    3.357976046    1.344348918   -0.089443368
   2  C       6.00    0.929389944   -0.113370094   -0.371319661
   3  C       6.00    0.851005696   -2.903174955    0.192457487
   4  O       8.00   -1.059670482    1.374143971    0.480848187
   5  O       8.00   -3.473044216    0.174428142   -0.227912094
   6  H       1.00    4.885499223    0.400221357   -1.156531566
   7  H       1.00    3.137573641    3.294019796   -0.805846756
   8  H       1.00    3.959409871    1.462212139    1.922501681
   9  H       1.00   -0.954023003   -3.746708216   -0.414149844
  10  H       1.00    2.423444755   -3.866894672   -0.791742045
  11  H       1.00    1.060768783   -3.251162738    2.254325708
  12  H       1.00   -3.756913083    1.041901984   -1.828168418

 Bond lengths in Bohr (Angstrom)

 1-2  2.846476668  1-6  2.088870779  1-7  2.088786147  1-8  2.103220688  2-3  2.847279389
     ( 1.506290578)     ( 1.105382809)     ( 1.105338024)     ( 1.112976454)     ( 1.506715360)

  2- 4  2.625880712   3- 9  2.082702432   3-10  2.090447083   3-11  2.101522451   4- 5  2.786760123
       ( 1.389556226)       ( 1.102118660)       ( 1.106216953)       ( 1.112077785)       ( 1.474689944)

  5-12  1.842257502
       ( 0.974880683)

 Bond angles

  1-2-3  120.37492214   1-2-4  108.90727334   2-1-6  109.99012438   2-1-7  110.73317762

  2- 1- 8  111.55562633   2- 3- 9  111.28646618   2- 3-10  109.74137437   2- 3-11  110.71791835

  2- 4- 5  109.24330045   3- 2- 4  118.03013507   4- 5-12   98.72252749   6- 1- 7  108.89478547

  6- 1- 8  107.75163163   7- 1- 8  107.81579769   9- 3-10  109.15168793   9- 3-11  107.77047344

 10- 3-11  108.08968316

 NUCLEAR CHARGE:                   41
 NUMBER OF PRIMITIVE AOS:         184
 NUMBER OF SYMMETRY AOS:          179
 NUMBER OF CONTRACTIONS:          105   ( 105A   )
 NUMBER OF CORE ORBITALS:           5   (   5A   )
 NUMBER OF VALENCE ORBITALS:       27   (  27A   )


 NUCLEAR REPULSION ENERGY  183.22452555


 Eigenvalues of metric

         1 0.345E-02 0.435E-02 0.105E-01 0.141E-01 0.182E-01 0.214E-01 0.331E-01 0.345E-01


 Contracted 2-electron integrals neglected if value below      1.0D-16
 AO integral compression algorithm  1   Integral accuracy      1.0D-16

     127.402 MB (compressed) written to integral file ( 93.4%)

     Node minimum: 41.157 MB, node maximum: 44.040 MB


 NUMBER OF SORTED TWO-ELECTRON INTEGRALS:    5164320.     BUFFER LENGTH:  32768
 NUMBER OF SEGMENTS:   1  SEGMENT LENGTH:    5164320      RECORD LENGTH: 524288

 Memory used in sort:       5.72 MW

 SORT1 READ    17075251. AND WROTE     5135896. INTEGRALS IN     15 RECORDS. CPU TIME:     0.21 SEC, REAL TIME:     0.26 SEC
 SORT2 READ    15396663. AND WROTE    15487395. INTEGRALS IN    471 RECORDS. CPU TIME:     0.07 SEC, REAL TIME:     0.10 SEC

 Node minimum:     5160610.  Node maximum:     5164320. integrals

 OPERATOR DM      FOR CENTER  0  COORDINATES:    0.000000    0.000000    0.000000


 **********************************************************************************************************************************
 DATASETS  * FILE   NREC   LENGTH (MB)   RECORD NAMES
              1      18        3.17       500      610      700      900      950      970     1000      129      960     1100   
                                          VAR    BASINP    GEOM    SYMINP    ZMAT    AOBASIS   BASIS     P2S    ABASIS      S 
                                         1400     1410     1200     1210     1080     1600     1650     1700   
                                           T        V       H0       H01     AOSYM     SMH    MOLCAS    OPER   

 PROGRAMS   *        TOTAL       INT
 CPU TIMES  *         0.96      0.89
 REAL TIME  *         1.67 SEC
 DISK USED  *       305.43 MB      
 GA USED    *         0.00 MB       (max)       0.00 MB       (current)
 **********************************************************************************************************************************

1PROGRAM * RHF-SCF (OPEN SHELL)       Authors: W. Meyer, H.-J. Werner


 NUMBER OF ELECTRONS:      21+   20-    SPACE SYMMETRY=1    SPIN SYMMETRY: Doublet 
 CONVERGENCE THRESHOLDS:    1.00E-10 (Density)    1.00E-11 (Energy)
 MAX. NUMBER OF ITERATIONS:      200
 INTERPOLATION TYPE:            DIIS
 INTERPOLATION STEPS:              2 (START)      1 (STEP)
 LEVEL SHIFTS:                 -0.30 (CLOSED)  0.00 (OPEN) 



 Orbital guess generated from atomic densities. Full valence occupancy:   32

 Molecular orbital dump at record        2100.2

 ITERATION    DDIFF          GRAD             ENERGY        2-EL.EN.            DIPOLE MOMENTS         DIIS
    1      0.000D+00      0.000D+00      -267.17823343    555.825553    0.57041    0.05038   -0.75126    0
    2      0.000D+00      0.617D-02      -267.24892972    555.744964    0.41385   -0.13054   -0.59872    1
    3      0.928D-02      0.214D-02      -267.26110732    555.663488    0.39353   -0.05876   -0.62580    2
    4      0.336D-02      0.912D-03      -267.26471558    555.815501    0.37886   -0.09896   -0.64189    3
    5      0.186D-02      0.364D-03      -267.26528461    555.786789    0.38138   -0.09248   -0.63473    4
    6      0.792D-03      0.110D-03      -267.26536105    555.773048    0.37964   -0.09229   -0.63743    5
    7      0.277D-03      0.511D-04      -267.26538119    555.770023    0.37892   -0.09204   -0.63691    6
    8      0.144D-03      0.273D-04      -267.26538725    555.768079    0.37920   -0.09216   -0.63711    7
    9      0.924D-04      0.115D-04      -267.26538817    555.768387    0.37939   -0.09211   -0.63687    8
   10      0.366D-04      0.501D-05      -267.26538832    555.769002    0.37965   -0.09213   -0.63694    9
   11      0.147D-04      0.196D-05      -267.26538835    555.768844    0.37970   -0.09212   -0.63694    9
   12      0.651D-05      0.671D-06      -267.26538835    555.768978    0.37972   -0.09212   -0.63694    9
   13      0.227D-05      0.226D-06      -267.26538835    555.768894    0.37972   -0.09212   -0.63694    9
   14      0.632D-06      0.758D-07      -267.26538835    555.768903    0.37972   -0.09212   -0.63694    9
   15      0.193D-06      0.301D-07      -267.26538835    555.768899    0.37972   -0.09212   -0.63694    9
   16      0.825D-07      0.145D-07      -267.26538835    555.768900    0.37972   -0.09212   -0.63694    9
   17      0.375D-07      0.752D-08      -267.26538835    555.768900    0.37972   -0.09212   -0.63694    9
   18      0.223D-07      0.342D-08      -267.26538835    555.768900    0.37972   -0.09212   -0.63694    9
   19      0.114D-07      0.133D-08      -267.26538835    555.768900    0.37972   -0.09212   -0.63694    9
   20      0.444D-08      0.568D-09      -267.26538835    555.768900    0.37972   -0.09212   -0.63694    9
   21      0.166D-08      0.287D-09      -267.26538835    555.768900    0.37972   -0.09212   -0.63694    9
   22      0.756D-09      0.162D-09      -267.26538835    555.768900    0.37972   -0.09212   -0.63694    9
   23      0.447D-09      0.797D-10      -267.26538835    555.768900    0.37972   -0.09212   -0.63694    9
   24      0.264D-09      0.317D-10      -267.26538835    555.768900    0.37972   -0.09212   -0.63694    9
   25      0.933D-10      0.129D-10      -267.26538835    555.768900    0.37972   -0.09212   -0.63694    0

 Final alpha occupancy:  21
 Final beta  occupancy:  20

 !RHF STATE 1.1 Energy               -267.265388352482
 Nuclear energy                       183.22452555
 One-electron energy                 -728.37436411
 Two-electron energy                  277.88445021
 Virial quotient                       -1.00155239
 !RHF STATE 1.1 Dipole moment           0.37972025    -0.09212383    -0.63693766
 Dipole moment /Debye                   0.96508938    -0.23414010    -1.61882802

 Orbital energies:

         1.1          2.1          3.1          4.1          5.1          6.1          7.1          8.1          9.1         10.1
    -20.630432   -20.628848   -11.279248   -11.237875   -11.232037    -1.470104    -1.240632    -1.023215    -0.945388    -0.768435

        11.1         12.1         13.1         14.1         15.1         16.1         17.1         18.1         19.1         20.1
     -0.704486    -0.643033    -0.626810    -0.588766    -0.545293    -0.543177    -0.539163    -0.516919    -0.492978    -0.469701

        21.1         22.1         23.1
     -0.352383     0.181238     0.183532


 **********************************************************************************************************************************
 DATASETS  * FILE   NREC   LENGTH (MB)   RECORD NAMES
              1      18        3.17       500      610      700      900      950      970     1000      129      960     1100   
                                          VAR    BASINP    GEOM    SYMINP    ZMAT    AOBASIS   BASIS     P2S    ABASIS      S 
                                         1400     1410     1200     1210     1080     1600     1650     1700   
                                           T        V       H0       H01     AOSYM     SMH    MOLCAS    OPER   

              2       3        0.77       700     1000     2100   
                                         GEOM     BASIS     RHF  

 PROGRAMS   *        TOTAL       RHF       INT
 CPU TIMES  *         2.08      1.12      0.89
 REAL TIME  *         2.92 SEC
 DISK USED  *       322.00 MB      
 SF USED    *         0.04 MB      
 GA USED    *         0.00 MB       (max)       0.00 MB       (current)
 **********************************************************************************************************************************


1PROGRAM * CCSD (Unrestricted open-shell coupled cluster)     Authors: C. Hampel, H.-J. Werner, 1991, M. Deegan, P.J. Knowles, 1992


 Convergence thresholds:  THRVAR = 1.00D-08  THRDEN = 1.00D-10

 CCSD(T)     terms to be evaluated (factor= 1.000)


 Number of core orbitals:           5 (   5 )
 Number of closed-shell orbitals:  15 (  15 )
 Number of active  orbitals:        1 (   1 )
 Number of external orbitals:      84 (  84 )

 Memory could be reduced to 24.91 Mwords without degradation in triples

 Number of N-1 electron functions:              31
 Number of N-2 electron functions:             465
 Number of singly external CSFs:              2635
 Number of doubly external CSFs:           2537250
 Total number of CSFs:                     2539885

 Molecular orbitals read from record     2100.2  Type=RHF/CANONICAL (state 1.1)

 Integral transformation finished. Total CPU:   1.26 sec, npass=  1  Memory used:  12.63 MW

 Starting RMP2 calculation

 ITER.      SQ.NORM     CORR.ENERGY   TOTAL ENERGY   ENERGY CHANGE        DEN1      VAR(S)    VAR(P)  DIIS     TIME
   1      1.24302690    -0.78638030  -268.05176865    -0.78638030    -0.00304972  0.20D-04  0.11D-02  1  1     1.70
   2      1.24566805    -0.78966921  -268.05505756    -0.00328891    -0.00000474  0.54D-06  0.19D-05  2  2     2.07
   3      1.24573355    -0.78971125  -268.05509960    -0.00004204    -0.00000003  0.16D-07  0.67D-08  3  3     2.47
   4      1.24573450    -0.78971125  -268.05509960    -0.00000000    -0.00000000  0.27D-09  0.38D-10  4  4     2.90
   5      1.24573458    -0.78971128  -268.05509964    -0.00000003    -0.00000000  0.25D-11  0.65D-12  5  5     3.35
   6      1.24573459    -0.78971129  -268.05509964    -0.00000001    -0.00000000  0.28D-13  0.86D-14  6  6     3.84
   7      1.24573459    -0.78971129  -268.05509964     0.00000000    -0.00000000  0.47D-15  0.12D-15  6  1     4.34
   8      1.24573459    -0.78971129  -268.05509964     0.00000000    -0.00000000  0.59D-17  0.13D-17  6  2     4.83

 Norm of t1 vector:      0.03891325      S-energy:    -0.00227011      T1 diagnostic:  0.00054993
 Norm of t2 vector:      0.49418655      P-energy:    -0.78744118
                                         Alpha-Beta:  -0.59341869
                                         Alpha-Alpha: -0.10094144
                                         Beta-Beta:   -0.09308105

 Spin contamination <S**2-Sz**2-Sz>     0.00103939
  Reference energy                   -267.265388352482
  RHF-RMP2 correlation energy          -0.789711288618
 !RHF-RMP2 energy                    -268.055099641100

 Starting UCCSD calculation

 ITER.      SQ.NORM     CORR.ENERGY   TOTAL ENERGY   ENERGY CHANGE        DEN1      VAR(S)    VAR(P)  DIIS     TIME
   1      1.26279655    -0.80904789  -268.07443624    -0.80904789    -0.02515641  0.38D-02  0.59D-02  1  1    12.45
   2      1.29156976    -0.83645729  -268.10184564    -0.02740940    -0.00201118  0.22D-03  0.66D-03  2  2    20.04
   3      1.30151093    -0.84095553  -268.10634388    -0.00449824    -0.00032467  0.19D-03  0.56D-04  3  3    27.65
   4      1.30642469    -0.84243273  -268.10782108    -0.00147720    -0.00007212  0.43D-04  0.14D-04  4  4    35.18
   5      1.30915570    -0.84282096  -268.10820931    -0.00038823    -0.00002369  0.19D-04  0.32D-05  5  5    42.83
   6      1.31109643    -0.84302556  -268.10841392    -0.00020460    -0.00000647  0.42D-05  0.12D-05  6  6    50.53
   7      1.31204700    -0.84308441  -268.10847276    -0.00005885    -0.00000208  0.14D-05  0.37D-06  6  2    58.23
   8      1.31248922    -0.84312714  -268.10851549    -0.00004273    -0.00000065  0.45D-06  0.11D-06  6  1    65.99
   9      1.31267460    -0.84313172  -268.10852007    -0.00000459    -0.00000022  0.15D-06  0.35D-07  6  4    73.67
  10      1.31273772    -0.84313465  -268.10852300    -0.00000293    -0.00000005  0.35D-07  0.95D-08  6  3    81.28
  11      1.31276723    -0.84313339  -268.10852174     0.00000126    -0.00000002  0.13D-07  0.28D-08  6  5    88.98
  12      1.31277763    -0.84313313  -268.10852148     0.00000026    -0.00000000  0.26D-08  0.95D-09  6  6    97.00
  13      1.31277649    -0.84313222  -268.10852057     0.00000091    -0.00000000  0.96D-09  0.29D-09  6  2   104.87
  14      1.31277128    -0.84313137  -268.10851972     0.00000084    -0.00000000  0.21D-09  0.67D-10  6  1   111.85
  15      1.31276721    -0.84313079  -268.10851914     0.00000059    -0.00000000  0.78D-10  0.19D-10  6  4   117.38
  16      1.31276402    -0.84313040  -268.10851875     0.00000038    -0.00000000  0.28D-10  0.63D-11  6  3   122.90
  17      1.31276181    -0.84313016  -268.10851851     0.00000024    -0.00000000  0.10D-10  0.24D-11  6  5   128.42
  18      1.31276091    -0.84313010  -268.10851845     0.00000006    -0.00000000  0.41D-11  0.87D-12  6  6   133.95
  19      1.31276030    -0.84313007  -268.10851842     0.00000003    -0.00000000  0.16D-11  0.37D-12  6  2   139.47
  20      1.31275998    -0.84313006  -268.10851841     0.00000001    -0.00000000  0.60D-12  0.13D-12  6  1   144.96
  21      1.31275981    -0.84313005  -268.10851840     0.00000001    -0.00000000  0.28D-12  0.58D-13  6  4   150.50
  22      1.31275969    -0.84313004  -268.10851839     0.00000001    -0.00000000  0.74D-13  0.21D-13  6  3   156.05
  23      1.31275963    -0.84313003  -268.10851839     0.00000000    -0.00000000  0.21D-13  0.63D-14  6  5   161.57
  24      1.31275963    -0.84313004  -268.10851839    -0.00000000    -0.00000000  0.67D-14  0.22D-14  6  6   167.10
  25      1.31275963    -0.84313004  -268.10851839    -0.00000000    -0.00000000  0.21D-14  0.52D-15  6  2   172.62
  26      1.31275964    -0.84313004  -268.10851839    -0.00000000    -0.00000000  0.77D-15  0.15D-15  6  1   178.13
  27      1.31275965    -0.84313004  -268.10851839    -0.00000000    -0.00000000  0.20D-15  0.63D-16  6  3   183.63
  28      1.31275965    -0.84313004  -268.10851839    -0.00000000    -0.00000000  0.30D-16  0.11D-16  6  4   189.11
  29      1.31275966    -0.84313004  -268.10851839    -0.00000000    -0.00000000  0.71D-17  0.29D-17  6  5   194.61
  30      1.31275966    -0.84313004  -268.10851839    -0.00000000    -0.00000000  0.15D-17  0.54D-18  6  6   200.13
  31      1.31275966    -0.84313004  -268.10851839    -0.00000000    -0.00000000  0.35D-18  0.10D-18  6  2   205.63

 Norm of t1 vector:      0.13872469      S-energy:    -0.00281938      T1 diagnostic:  0.01617144
                                                                       D1 diagnostic:  0.06283640
 Norm of t2 vector:      0.54177036      P-energy:    -0.84031066
                                         Alpha-Beta:  -0.66486546
                                         Alpha-Alpha: -0.09147379
                                         Beta-Beta:   -0.08397141

 Spin contamination <S**2-Sz**2-Sz>     0.00217230

 Memory could be reduced to 28.85 Mwords without degradation in triples
 

 RESULTS
 =======

  Reference energy                   -267.265388352482
  UCCSD singles energy                 -0.002819376377
  UCCSD pair energy                    -0.840310662020
  UCCSD correlation energy             -0.843130038397
  Triples (T) contribution             -0.024975571072
  Total correlation energy             -0.868105609469
 
  RHF-UCCSD energy                   -268.108518390879
  RHF-UCCSD[T] energy                -268.134830094530
  RHF-UCCSD-T energy                 -268.133072440961
 !RHF-UCCSD(T) energy                -268.133493961951

 Program statistics:

 Available memory in ccsd:               999997692
 Min. memory needed in ccsd:               7337057
 Max. memory used in ccsd:                10523002
 Max. memory used in cckext:              10867977 (31 integral passes)
 Max. memory used in cckint:              12633073 ( 1 integral passes)



 **********************************************************************************************************************************
 DATASETS  * FILE   NREC   LENGTH (MB)   RECORD NAMES
              1      18        3.17       500      610      700      900      950      970     1000      129      960     1100   
                                          VAR    BASINP    GEOM    SYMINP    ZMAT    AOBASIS   BASIS     P2S    ABASIS      S 
                                         1400     1410     1200     1210     1080     1600     1650     1700   
                                           T        V       H0       H01     AOSYM     SMH    MOLCAS    OPER   

              2       3        0.77       700     1000     2100   
                                         GEOM     BASIS     RHF  

 PROGRAMS   *        TOTAL  UCCSD(T)       RHF       INT
 CPU TIMES  *       254.68    252.60      1.12      0.89
 REAL TIME  *       267.59 SEC
 DISK USED  *         1.29 GB      
 SF USED    *       553.73 MB      
 GA USED    *         0.00 MB       (max)       0.00 MB       (current)
 **********************************************************************************************************************************

        UCCSD(T)        RHF-SCF 
   -268.13349396   -267.26538835
 **********************************************************************************************************************************
 Variable memory released
