
 Primary working directories    : /tmp/320938.724.gen4.q
 Secondary working directories  : /tmp/320938.724.gen4.q
 Wavefunction directory         : /home/vulcan/mel64643/wfu/
 Main file repository           : /tmp/320938.724.gen4.q/

 ARCHNAME  : Linux/x86_64
 FC        : /opt/intel/compilers_and_libraries_2016.1.150/linux/bin/intel64/ifort
 FCVERSION : 16.0.1
 BLASLIB   : -mkl
 id        : ccgc

 Nodes     nprocs
 n021         3
 Number of processes for MPI-2 version of Molpro:   nprocs(total)=    4   nprocs(compute)=    3   nprocs(helper)=    1
 ga_uses_ma=false, calling ma_init with nominal heap.
 GA-space will be limited to   8.0 MW (determined by -G option)

 Using customized tuning parameters: mindgm=10; mindgv=16; mindgc=4; mindgr=1; noblas=0; mincuda=1000; minvec=7
 default implementation of scratch files=sf  

 ***,Frequencies for min3
 memory,1000,m
 gthresh,energy=1.0d-10,orbital=1.0d-10,oneint=1.0d-16,twoint=1.0d-16,optgrad=1.0d-6,compress=1.0d-13
 geomtyp=xyz
 
  geometry = {
  12
  arbitrary comment
     C    1.776964391707    0.711398808326   -0.047331391796
     C    0.491811976407   -0.059992870174   -0.196493901896
     C    0.450332819107   -1.536294019674    0.101417522804
     O   -0.560767745493    0.727234937526    0.254453964104
     O   -1.838203552770    0.092301754332   -0.120536610554
     H    2.586222110991    0.211316771280   -0.611424569411
     H    1.661336483041    1.742777362201   -0.428381449929
     H    2.095620434744    0.773698547528    1.019196302719
     H   -0.503923613378   -1.982721515141   -0.220385401496
     H    1.282888669626   -2.046940452092   -0.417101456034
     H    0.562407402997   -1.719702239053    1.194796964919
     H   -1.987103359395    0.551140293682   -0.966441041801
  }
 
 basis=cc-pvdz
 {rhf;maxit,200}
 {uccsd(t);maxit,200}

 Variables initialized (661), CPU time= 0.00 sec
 Commands  initialized (458), CPU time= 0.00 sec, 486 directives.
 Default parameters read. Elapsed time= 0.06 sec

 Checking input...
 Passed
1


                                         ***  PROGRAM SYSTEM MOLPRO  ***
                         Copyright, University College Cardiff Consultants Limited, 2008

                                    Version 2010.1 linked May 16 2016 07:17:05


 **********************************************************************************************************************************
 LABEL *   Frequencies for min3                                                          
 Linux-4.4.3/n021(x86_64) 64 bit mpp version                                             DATE: 07-Mar-20          TIME: 05:14:05  
 **********************************************************************************************************************************

 SHA1:             9e8077add272b0f3cad6f7df79ec5211205f459d
 **********************************************************************************************************************************

 THRESHOLDS:

 ZERO    =  1.00D-12  ONEINT  =  1.00D-16  TWOINT  =  1.00D-16  PREFAC  =  1.00D-14  LOCALI  =  1.00D-09  EORDER  =  1.00D-04
 ENERGY  =  1.00D-10  ETEST   =  0.00D+00  EDENS   =  0.00D+00  THRDEDEF=  1.00D-06  GRADIENT=  1.00D-02  STEP    =  1.00D-03
 ORBITAL =  1.00D-10  CIVEC   =  1.00D-05  COEFF   =  1.00D-04  PRINTCI =  5.00D-02  PUNCHCI =  9.90D+01  OPTGRAD =  1.00D-06
 OPTENERG=  1.00D-06  OPTSTEP =  3.00D-04  THRGRAD =  1.00D-10  COMPRESS=  1.00D-13  VARMIN  =  1.00D-07  VARMAX  =  1.00D-03
 THRDOUB =  0.00D+00  THRDIV  =  1.00D-05  THRRED  =  1.00D-07  THRPSP  =  1.00D+00  THRDC   =  1.00D-10  THRCS   =  1.00D-10
 THRNRM  =  1.00D-08  THREQ   =  0.00D+00  THRDE   =  1.00D+00  THRREF  =  1.00D-05  SPARFAC =  1.00D+00  THRDLP  =  1.00D-07
 THRDIA  =  1.00D-10  THRDLS  =  1.00D-07  THRGPS  =  0.00D+00  THRKEX  =  0.00D+00  THRDIS  =  2.00D-01  THRVAR  =  1.00D-10
 THRLOC  =  1.00D-06  THRGAP  =  1.00D-06  THRLOCT = -1.00D+00  THRGAPT = -1.00D+00  THRORB  =  1.00D-06  THRMLTP =  0.00D+00
 THRCPQCI=  1.00D-10  KEXTA   =  0.00D+00  THRCOARS=  0.00D+00  SYMTOL  =  1.00D-06  GRADTOL =  1.00D-06  THROVL  =  1.00D-08
 THRORTH =  1.00D-08  GRID    =  1.00D-06  GRIDMAX =  1.00D-03  DTMAX   =  0.00D+00

 SETTING GEOMTYP        =    XYZ

 Variable memory set to 1000000000 words,  buffer space   230000 words

 SETTING BASIS          =    CC-PVDZ


 Recomputing integrals since basis changed


 Using spherical harmonics

 Library entry C      S cc-pVDZ              selected for orbital group  1
 Library entry C      P cc-pVDZ              selected for orbital group  1
 Library entry C      D cc-pVDZ              selected for orbital group  1
 Library entry O      S cc-pVDZ              selected for orbital group  2
 Library entry O      P cc-pVDZ              selected for orbital group  2
 Library entry O      D cc-pVDZ              selected for orbital group  2
 Library entry H      S cc-pVDZ              selected for orbital group  3
 Library entry H      P cc-pVDZ              selected for orbital group  3

1PROGRAM * SEWARD (Integral evaluation for generally contracted gaussian basis sets)     Author: Roland Lindh, 1990

 Geometry written to block  1 of record 700


 Point group  C1  



 ATOMIC COORDINATES

 NR  ATOM    CHARGE       X              Y              Z

   1  C       6.00    3.357976046    1.344348918   -0.089443368
   2  C       6.00    0.929389944   -0.113370094   -0.371319661
   3  C       6.00    0.851005696   -2.903174955    0.191651343
   4  O       8.00   -1.059697462    1.374274865    0.480848305
   5  O       8.00   -3.473701289    0.174425037   -0.227781183
   6  H       1.00    4.887251505    0.399330825   -1.155424986
   7  H       1.00    3.139470965    3.293371923   -0.809523620
   8  H       1.00    3.960148697    1.462078363    1.926001886
   9  H       1.00   -0.952277620   -3.746800658   -0.416468052
  10  H       1.00    2.424308243   -3.868156862   -0.788207521
  11  H       1.00    1.062795966   -3.249766259    2.257839046
  12  H       1.00   -3.755081144    1.041504215   -1.826308891

 Bond lengths in Bohr (Angstrom)

 1-2  2.846476668  1-6  2.089990296  1-7  2.089246446  1-8  2.106772816  2-3  2.847119878
     ( 1.506290578)     ( 1.105975232)     ( 1.105581603)     ( 1.114856159)     ( 1.506630951)

  2- 4  2.625975338   3- 9  2.081668621   3-10  2.089639772   3-11  2.105733192   4- 5  2.787330234
       ( 1.389606300)       ( 1.101571591)       ( 1.105789742)       ( 1.114306014)       ( 1.474991634)

  5-12  1.840187968
       ( 0.973785533)

 Bond angles

  1-2-3  120.37866573   1-2-4  108.90555081   2-1-6  110.01246704   2-1-7  110.75546288

  2- 1- 8  111.54402967   2- 3- 9  111.29630207   2- 3-10  109.81894670   2- 3-11  110.64224794

  2- 4- 5  109.24738879   3- 2- 4  118.03986083   4- 5-12   98.65256763   6- 1- 7  108.81731963

  6- 1- 8  107.70133393   7- 1- 8  107.90754808   9- 3-10  109.15267115   9- 3-11  107.88261739

 10- 3-11  107.96117444

 NUCLEAR CHARGE:                   41
 NUMBER OF PRIMITIVE AOS:         184
 NUMBER OF SYMMETRY AOS:          179
 NUMBER OF CONTRACTIONS:          105   ( 105A   )
 NUMBER OF CORE ORBITALS:           5   (   5A   )
 NUMBER OF VALENCE ORBITALS:       27   (  27A   )


 NUCLEAR REPULSION ENERGY  183.20589366


 Eigenvalues of metric

         1 0.345E-02 0.435E-02 0.105E-01 0.141E-01 0.182E-01 0.214E-01 0.331E-01 0.346E-01


 Contracted 2-electron integrals neglected if value below      1.0D-16
 AO integral compression algorithm  1   Integral accuracy      1.0D-16

     127.402 MB (compressed) written to integral file ( 93.4%)

     Node minimum: 40.894 MB, node maximum: 44.302 MB


 NUMBER OF SORTED TWO-ELECTRON INTEGRALS:    5164320.     BUFFER LENGTH:  32768
 NUMBER OF SEGMENTS:   1  SEGMENT LENGTH:    5164320      RECORD LENGTH: 524288

 Memory used in sort:       5.72 MW

 SORT1 READ    17075251. AND WROTE     5135858. INTEGRALS IN     15 RECORDS. CPU TIME:     0.24 SEC, REAL TIME:     0.27 SEC
 SORT2 READ    15396452. AND WROTE    15487395. INTEGRALS IN    483 RECORDS. CPU TIME:     0.08 SEC, REAL TIME:     0.12 SEC

 Node minimum:     5160610.  Node maximum:     5164320. integrals

 OPERATOR DM      FOR CENTER  0  COORDINATES:    0.000000    0.000000    0.000000


 **********************************************************************************************************************************
 DATASETS  * FILE   NREC   LENGTH (MB)   RECORD NAMES
              1      18        3.17       500      610      700      900      950      970     1000      129      960     1100   
                                          VAR    BASINP    GEOM    SYMINP    ZMAT    AOBASIS   BASIS     P2S    ABASIS      S 
                                         1400     1410     1200     1210     1080     1600     1650     1700   
                                           T        V       H0       H01     AOSYM     SMH    MOLCAS    OPER   

 PROGRAMS   *        TOTAL       INT
 CPU TIMES  *         1.27      1.22
 REAL TIME  *         1.59 SEC
 DISK USED  *       305.69 MB      
 GA USED    *         0.00 MB       (max)       0.00 MB       (current)
 **********************************************************************************************************************************

1PROGRAM * RHF-SCF (OPEN SHELL)       Authors: W. Meyer, H.-J. Werner


 NUMBER OF ELECTRONS:      21+   20-    SPACE SYMMETRY=1    SPIN SYMMETRY: Doublet 
 CONVERGENCE THRESHOLDS:    1.00E-10 (Density)    1.00E-11 (Energy)
 MAX. NUMBER OF ITERATIONS:      200
 INTERPOLATION TYPE:            DIIS
 INTERPOLATION STEPS:              2 (START)      1 (STEP)
 LEVEL SHIFTS:                 -0.30 (CLOSED)  0.00 (OPEN) 



 Orbital guess generated from atomic densities. Full valence occupancy:   32

 Molecular orbital dump at record        2100.2

 ITERATION    DDIFF          GRAD             ENERGY        2-EL.EN.            DIPOLE MOMENTS         DIIS
    1      0.000D+00      0.000D+00      -267.17815601    555.784454    0.57474    0.04929   -0.74910    0
    2      0.000D+00      0.617D-02      -267.24883656    555.705005    0.41555   -0.13136   -0.59857    1
    3      0.927D-02      0.214D-02      -267.26102702    555.623355    0.39494   -0.05937   -0.62617    2
    4      0.336D-02      0.912D-03      -267.26464473    555.775510    0.37988   -0.09956   -0.64265    3
    5      0.186D-02      0.364D-03      -267.26521640    555.746842    0.38226   -0.09308   -0.63567    4
    6      0.794D-03      0.110D-03      -267.26529337    555.733146    0.38047   -0.09289   -0.63843    5
    7      0.278D-03      0.513D-04      -267.26531371    555.730101    0.37973   -0.09264   -0.63793    6
    8      0.144D-03      0.274D-04      -267.26531983    555.728171    0.37999   -0.09275   -0.63814    7
    9      0.929D-04      0.116D-04      -267.26532076    555.728477    0.38018   -0.09271   -0.63790    8
   10      0.367D-04      0.504D-05      -267.26532092    555.729094    0.38044   -0.09272   -0.63796    9
   11      0.147D-04      0.197D-05      -267.26532094    555.728935    0.38049   -0.09272   -0.63797    9
   12      0.654D-05      0.672D-06      -267.26532095    555.729069    0.38051   -0.09272   -0.63797    9
   13      0.228D-05      0.227D-06      -267.26532095    555.728984    0.38051   -0.09272   -0.63796    9
   14      0.633D-06      0.761D-07      -267.26532095    555.728993    0.38051   -0.09272   -0.63796    9
   15      0.193D-06      0.302D-07      -267.26532095    555.728989    0.38052   -0.09272   -0.63796    9
   16      0.830D-07      0.146D-07      -267.26532095    555.728991    0.38052   -0.09272   -0.63796    9
   17      0.378D-07      0.756D-08      -267.26532095    555.728991    0.38052   -0.09272   -0.63796    9
   18      0.225D-07      0.344D-08      -267.26532095    555.728991    0.38052   -0.09272   -0.63796    9
   19      0.115D-07      0.134D-08      -267.26532095    555.728991    0.38052   -0.09272   -0.63796    9
   20      0.446D-08      0.572D-09      -267.26532095    555.728991    0.38052   -0.09272   -0.63796    9
   21      0.167D-08      0.289D-09      -267.26532095    555.728991    0.38052   -0.09272   -0.63796    9
   22      0.763D-09      0.163D-09      -267.26532095    555.728991    0.38052   -0.09272   -0.63796    9
   23      0.451D-09      0.804D-10      -267.26532095    555.728991    0.38052   -0.09272   -0.63796    9
   24      0.266D-09      0.320D-10      -267.26532095    555.728991    0.38052   -0.09272   -0.63796    9
   25      0.942D-10      0.131D-10      -267.26532095    555.728991    0.38052   -0.09272   -0.63796    0

 Final alpha occupancy:  21
 Final beta  occupancy:  20

 !RHF STATE 1.1 Energy               -267.265320945484
 Nuclear energy                       183.20589366
 One-electron energy                 -728.33571003
 Two-electron energy                  277.86449542
 Virial quotient                       -1.00156689
 !RHF STATE 1.1 Dipole moment           0.38051590    -0.09272251    -0.63796354
 Dipole moment /Debye                   0.96711160    -0.23566168    -1.62143537

 Orbital energies:

         1.1          2.1          3.1          4.1          5.1          6.1          7.1          8.1          9.1         10.1
    -20.630506   -20.628846   -11.279334   -11.238198   -11.232229    -1.470164    -1.240896    -1.023164    -0.945222    -0.768403

        11.1         12.1         13.1         14.1         15.1         16.1         17.1         18.1         19.1         20.1
     -0.704682    -0.643027    -0.626695    -0.588726    -0.545141    -0.543330    -0.538710    -0.516968    -0.493088    -0.469862

        21.1         22.1         23.1
     -0.352337     0.181291     0.183492


 **********************************************************************************************************************************
 DATASETS  * FILE   NREC   LENGTH (MB)   RECORD NAMES
              1      18        3.17       500      610      700      900      950      970     1000      129      960     1100   
                                          VAR    BASINP    GEOM    SYMINP    ZMAT    AOBASIS   BASIS     P2S    ABASIS      S 
                                         1400     1410     1200     1210     1080     1600     1650     1700   
                                           T        V       H0       H01     AOSYM     SMH    MOLCAS    OPER   

              2       3        0.77       700     1000     2100   
                                         GEOM     BASIS     RHF  

 PROGRAMS   *        TOTAL       RHF       INT
 CPU TIMES  *         2.85      1.58      1.22
 REAL TIME  *         3.32 SEC
 DISK USED  *       322.26 MB      
 SF USED    *         0.04 MB      
 GA USED    *         0.00 MB       (max)       0.00 MB       (current)
 **********************************************************************************************************************************


1PROGRAM * CCSD (Unrestricted open-shell coupled cluster)     Authors: C. Hampel, H.-J. Werner, 1991, M. Deegan, P.J. Knowles, 1992


 Convergence thresholds:  THRVAR = 1.00D-08  THRDEN = 1.00D-10

 CCSD(T)     terms to be evaluated (factor= 1.000)


 Number of core orbitals:           5 (   5 )
 Number of closed-shell orbitals:  15 (  15 )
 Number of active  orbitals:        1 (   1 )
 Number of external orbitals:      84 (  84 )

 Memory could be reduced to 24.91 Mwords without degradation in triples

 Number of N-1 electron functions:              31
 Number of N-2 electron functions:             465
 Number of singly external CSFs:              2635
 Number of doubly external CSFs:           2537250
 Total number of CSFs:                     2539885

 Molecular orbitals read from record     2100.2  Type=RHF/CANONICAL (state 1.1)

 Integral transformation finished. Total CPU:   1.59 sec, npass=  1  Memory used:  12.63 MW

 Starting RMP2 calculation

 ITER.      SQ.NORM     CORR.ENERGY   TOTAL ENERGY   ENERGY CHANGE        DEN1      VAR(S)    VAR(P)  DIIS     TIME
   1      1.24308998    -0.78642595  -268.05174690    -0.78642595    -0.00305109  0.20D-04  0.11D-02  1  1     2.08
   2      1.24573336    -0.78971639  -268.05503734    -0.00329044    -0.00000475  0.54D-06  0.19D-05  2  2     2.50
   3      1.24579901    -0.78975851  -268.05507946    -0.00004212    -0.00000003  0.16D-07  0.68D-08  3  3     2.96
   4      1.24579997    -0.78975852  -268.05507946    -0.00000000    -0.00000000  0.27D-09  0.38D-10  4  4     3.44
   5      1.24580005    -0.78975855  -268.05507949    -0.00000003    -0.00000000  0.25D-11  0.65D-12  5  5     3.95
   6      1.24580006    -0.78975855  -268.05507950    -0.00000001    -0.00000000  0.28D-13  0.87D-14  6  6     4.49
   7      1.24580006    -0.78975855  -268.05507950     0.00000000    -0.00000000  0.47D-15  0.12D-15  6  1     5.04
   8      1.24580006    -0.78975855  -268.05507950     0.00000000    -0.00000000  0.60D-17  0.13D-17  6  2     5.58

 Norm of t1 vector:      0.03894032      S-energy:    -0.00227205      T1 diagnostic:  0.00055061
 Norm of t2 vector:      0.49425066      P-energy:    -0.78748650
                                         Alpha-Beta:  -0.59346186
                                         Alpha-Alpha: -0.10094294
                                         Beta-Beta:   -0.09308171

 Spin contamination <S**2-Sz**2-Sz>     0.00104066
  Reference energy                   -267.265320945484
  RHF-RMP2 correlation energy          -0.789758553913
 !RHF-RMP2 energy                    -268.055079499397

 Starting UCCSD calculation

 ITER.      SQ.NORM     CORR.ENERGY   TOTAL ENERGY   ENERGY CHANGE        DEN1      VAR(S)    VAR(P)  DIIS     TIME
   1      1.26286801    -0.80909000  -268.07441095    -0.80909000    -0.02516581  0.38D-02  0.59D-02  1  1    15.31
   2      1.29166201    -0.83650902  -268.10182996    -0.02741901    -0.00201303  0.22D-03  0.66D-03  2  2    25.10
   3      1.30161484    -0.84101138  -268.10633232    -0.00450236    -0.00032495  0.19D-03  0.56D-04  3  3    34.53
   4      1.30653445    -0.84249008  -268.10781103    -0.00147870    -0.00007217  0.43D-04  0.14D-04  4  4    43.61
   5      1.30926745    -0.84287859  -268.10819954    -0.00038851    -0.00002371  0.19D-04  0.32D-05  5  5    50.41
   6      1.31120940    -0.84308332  -268.10840426    -0.00020473    -0.00000647  0.42D-05  0.12D-05  6  6    57.27
   7      1.31216036    -0.84314217  -268.10846312    -0.00005885    -0.00000208  0.14D-05  0.37D-06  6  2    64.16
   8      1.31260305    -0.84318494  -268.10850588    -0.00004276    -0.00000065  0.45D-06  0.11D-06  6  1    71.02
   9      1.31278893    -0.84318955  -268.10851050    -0.00000461    -0.00000022  0.15D-06  0.35D-07  6  4    77.83
  10      1.31285245    -0.84319250  -268.10851344    -0.00000295    -0.00000005  0.35D-07  0.96D-08  6  3    84.67
  11      1.31288212    -0.84319124  -268.10851219     0.00000126    -0.00000002  0.13D-07  0.28D-08  6  5    91.50
  12      1.31289256    -0.84319098  -268.10851193     0.00000026    -0.00000000  0.26D-08  0.96D-09  6  6    98.33
  13      1.31289142    -0.84319006  -268.10851101     0.00000092    -0.00000000  0.97D-09  0.29D-09  6  2   105.15
  14      1.31288620    -0.84318922  -268.10851016     0.00000085    -0.00000000  0.21D-09  0.68D-10  6  1   112.00
  15      1.31288211    -0.84318863  -268.10850957     0.00000059    -0.00000000  0.79D-10  0.19D-10  6  4   118.84
  16      1.31287892    -0.84318824  -268.10850919     0.00000038    -0.00000000  0.28D-10  0.63D-11  6  3   125.68
  17      1.31287671    -0.84318800  -268.10850895     0.00000024    -0.00000000  0.10D-10  0.24D-11  6  5   132.49
  18      1.31287580    -0.84318794  -268.10850889     0.00000006    -0.00000000  0.41D-11  0.87D-12  6  6   139.31
  19      1.31287519    -0.84318791  -268.10850886     0.00000003    -0.00000000  0.16D-11  0.37D-12  6  2   146.12
  20      1.31287487    -0.84318790  -268.10850884     0.00000001    -0.00000000  0.60D-12  0.13D-12  6  1   153.00
  21      1.31287470    -0.84318789  -268.10850883     0.00000001    -0.00000000  0.28D-12  0.58D-13  6  4   159.82
  22      1.31287458    -0.84318788  -268.10850882     0.00000001    -0.00000000  0.74D-13  0.22D-13  6  3   166.65
  23      1.31287452    -0.84318788  -268.10850882     0.00000000    -0.00000000  0.22D-13  0.63D-14  6  5   173.45
  24      1.31287452    -0.84318788  -268.10850882    -0.00000000    -0.00000000  0.68D-14  0.23D-14  6  6   180.26
  25      1.31287452    -0.84318788  -268.10850882    -0.00000000    -0.00000000  0.21D-14  0.53D-15  6  2   187.07
  26      1.31287453    -0.84318788  -268.10850882    -0.00000000    -0.00000000  0.78D-15  0.16D-15  6  1   193.89
  27      1.31287454    -0.84318788  -268.10850882    -0.00000000    -0.00000000  0.20D-15  0.63D-16  6  3   200.72
  28      1.31287454    -0.84318788  -268.10850883    -0.00000000    -0.00000000  0.30D-16  0.11D-16  6  4   207.55
  29      1.31287454    -0.84318788  -268.10850883    -0.00000000    -0.00000000  0.71D-17  0.30D-17  6  5   214.37
  30      1.31287454    -0.84318788  -268.10850883    -0.00000000    -0.00000000  0.15D-17  0.54D-18  6  6   221.19
  31      1.31287455    -0.84318788  -268.10850883    -0.00000000    -0.00000000  0.36D-18  0.11D-18  6  2   228.05

 Norm of t1 vector:      0.13877523      S-energy:    -0.00282208      T1 diagnostic:  0.01617584
                                                                       D1 diagnostic:  0.06284783
 Norm of t2 vector:      0.54186343      P-energy:    -0.84036580
                                         Alpha-Beta:  -0.66492525
                                         Alpha-Alpha: -0.09147145
                                         Beta-Beta:   -0.08396910

 Spin contamination <S**2-Sz**2-Sz>     0.00217483

 Memory could be reduced to 28.85 Mwords without degradation in triples
 

 RESULTS
 =======

  Reference energy                   -267.265320945484
  UCCSD singles energy                 -0.002822077204
  UCCSD pair energy                    -0.840365802901
  UCCSD correlation energy             -0.843187880105
  Triples (T) contribution             -0.024985595079
  Total correlation energy             -0.868173475184
 
  RHF-UCCSD energy                   -268.108508825589
  RHF-UCCSD[T] energy                -268.134831153109
  RHF-UCCSD-T energy                 -268.133072810457
 !RHF-UCCSD(T) energy                -268.133494420668

 Program statistics:

 Available memory in ccsd:               999997692
 Min. memory needed in ccsd:               7337057
 Max. memory used in ccsd:                10523002
 Max. memory used in cckext:              10867977 (31 integral passes)
 Max. memory used in cckint:              12633073 ( 1 integral passes)



 **********************************************************************************************************************************
 DATASETS  * FILE   NREC   LENGTH (MB)   RECORD NAMES
              1      18        3.17       500      610      700      900      950      970     1000      129      960     1100   
                                          VAR    BASINP    GEOM    SYMINP    ZMAT    AOBASIS   BASIS     P2S    ABASIS      S 
                                         1400     1410     1200     1210     1080     1600     1650     1700   
                                           T        V       H0       H01     AOSYM     SMH    MOLCAS    OPER   

              2       3        0.77       700     1000     2100   
                                         GEOM     BASIS     RHF  

 PROGRAMS   *        TOTAL  UCCSD(T)       RHF       INT
 CPU TIMES  *       291.99    289.13      1.58      1.22
 REAL TIME  *       305.36 SEC
 DISK USED  *         1.29 GB      
 SF USED    *       553.73 MB      
 GA USED    *         0.00 MB       (max)       0.00 MB       (current)
 **********************************************************************************************************************************

        UCCSD(T)        RHF-SCF 
   -268.13349442   -267.26532095
 **********************************************************************************************************************************
 Variable memory released
