
    -----------------------------------------------------------------------
          Psi4: An Open-Source Ab Initio Electronic Structure Package
                               Psi4 1.4a2.dev478 

                         Git: Rev {master} f722895 dirty


    R. M. Parrish, L. A. Burns, D. G. A. Smith, A. C. Simmonett,
    A. E. DePrince III, E. G. Hohenstein, U. Bozkaya, A. Yu. Sokolov,
    R. Di Remigio, R. M. Richard, J. F. Gonthier, A. M. James,
    H. R. McAlexander, A. Kumar, M. Saitow, X. Wang, B. P. Pritchard,
    P. Verma, H. F. Schaefer III, K. Patkowski, R. A. King, E. F. Valeev,
    F. A. Evangelista, J. M. Turney, T. D. Crawford, and C. D. Sherrill,
    J. Chem. Theory Comput. 13(7) pp 3185--3197 (2017).
    (doi: 10.1021/acs.jctc.7b00174)


                         Additional Contributions by
    P. Kraus, H. Kruse, M. H. Lechner, M. C. Schieber, R. A. Shaw,
    A. Alenaizan, R. Galvelis, Z. L. Glick, S. Lehtola, and J. P. Misiewicz

    -----------------------------------------------------------------------


    Psi4 started on: Friday, 05 June 2020 11:36AM

    Process ID: 2785
    Host:       n077
    PSIDATADIR: /opt/psi/4/master/share/psi4
    Memory:     500.0 MiB
    Threads:    4
    
  ==> Input File <==

--------------------------------------------------------------------------
set memory 40Gb

molecule {
    C   -1.169969463277   -0.774075714550    0.000473516936
    H   -1.617084136019   -1.211448694480   -0.890848982219
    H   -1.617392819846   -1.211826965513    0.889506835739
    C   -1.170087779817    0.773896027727   -0.000163551340
    H   -1.617569348929    1.211199398219    0.890034898837
    H   -1.617281187895    1.211577815977   -0.890320224936
    C    0.356732242281    0.920125672349    0.000110833521
    H    0.841131882643    1.891613462867    0.000388329818
    O    0.761089349969    0.000265515946   -1.017913962624
    C    0.356873025802   -0.920070811231   -0.000262968418
    H    0.841421920213   -1.891484159819   -0.000377503404
    O    0.760747723083   -0.000148607553    1.017897415371
}

set {
    e_convergence 10
    d_convergence 10
    freeze_core True
    basis_guess True
    cc_type conv
    maxiter 300
}

E = energy('mp2/heavy-aug-cc-pV(Q+d)Z')
psi4.print_out("\n========================OPTAVC-XTPL==========================\n\n")
psi4.print_out("MP2/QZ correlation energy {}\n".format(variable("MP2 CORRELATION ENERGY")))
psi4.print_out("SCF/QZ reference energy {}\n".format(variable("CURRENT REFERENCE ENERGY")))
psi4.print_out("\n\n=============================================================\n")

E = energy('mp2/heavy-aug-cc-pV(T+d)Z')
psi4.print_out("\n========================OPTAVC-XTPL==========================\n\n")
psi4.print_out("MP2/TZ correlation energy {}".format(variable("MP2 CORRELATION ENERGY")))
psi4.print_out("\n\n=============================================================\n")
--------------------------------------------------------------------------

Scratch directory: /tmp/

Scratch directory: /tmp/
    SCF Algorithm Type (re)set to DF.

*** tstart() called on n077
*** at Fri Jun  5 11:36:07 2020


  //>>>>>>>>>>>>>>>>>>>>>>>>>>>>>>>>>>>//
  //      Guess SCF, pcseg-0 Basis     //
  //<<<<<<<<<<<<<<<<<<<<<<<<<<<<<<<<<<<//

   => Loading Basis Set <=

    Name: PCSEG-0
    Role: ORBITAL
    Keyword: BASIS
    atoms 1, 4, 7, 10     entry C          line    71 file /opt/psi/4/master/share/psi4/basis/pcseg-0.gbs 
    atoms 2-3, 5-6, 8, 11 entry H          line    13 file /opt/psi/4/master/share/psi4/basis/pcseg-0.gbs 
    atoms 9, 12           entry O          line   103 file /opt/psi/4/master/share/psi4/basis/pcseg-0.gbs 


         ---------------------------------------------------------
                           SCF Castup computation                  
         ---------------------------------------------------------
                                   SCF
               by Justin Turney, Rob Parrish, Andy Simmonett
                          and Daniel G. A. Smith
                              RHF Reference
                        4 Threads,    500 MiB Core
         ---------------------------------------------------------

  ==> Geometry <==

    Molecular point group: c1
    Full point group: C1

    Geometry (in Angstrom), charge = 0, multiplicity = 1:

       Center              X                  Y                   Z               Mass       
    ------------   -----------------  -----------------  -----------------  -----------------
         C           -1.169969463277    -0.774075714550     0.000473516936    12.000000000000
         H           -1.617084136019    -1.211448694480    -0.890848982219     1.007825032230
         H           -1.617392819846    -1.211826965513     0.889506835739     1.007825032230
         C           -1.170087779817     0.773896027727    -0.000163551340    12.000000000000
         H           -1.617569348929     1.211199398219     0.890034898837     1.007825032230
         H           -1.617281187895     1.211577815977    -0.890320224936     1.007825032230
         C            0.356732242281     0.920125672349     0.000110833521    12.000000000000
         H            0.841131882643     1.891613462867     0.000388329818     1.007825032230
         O            0.761089349969     0.000265515946    -1.017913962624    15.994914619570
         C            0.356873025802    -0.920070811231    -0.000262968418    12.000000000000
         H            0.841421920213    -1.891484159819    -0.000377503404     1.007825032230
         O            0.760747723083    -0.000148607553     1.017897415371    15.994914619570

  Running in c1 symmetry.

  Rotational constants: A =      0.20029  B =      0.16407  C =      0.14758 [cm^-1]
  Rotational constants: A =   6004.67167  B =   4918.80490  C =   4424.29031 [MHz]
  Nuclear repulsion =  258.065296693035918

  Charge       = 0
  Multiplicity = 1
  Electrons    = 46
  Nalpha       = 23
  Nbeta        = 23

  ==> Algorithm <==

  SCF Algorithm Type is DF.
  DIIS enabled.
  MOM disabled.
  Fractional occupation disabled.
  Guess Type is SAD.
  Energy threshold   = 1.00e-10
  Density threshold  = 1.00e-10
  Integral threshold = 0.00e+00

  ==> Primary Basis <==

  Basis Set: PCSEG-0
    Blend: PCSEG-0
    Number of shells: 42
    Number of basis function: 66
    Number of Cartesian functions: 66
    Spherical Harmonics?: true
    Max angular momentum: 1

   => Loading Basis Set <=

    Name: (PCSEG-0 AUX)
    Role: JKFIT
    Keyword: DF_BASIS_SCF
    atoms 1, 4, 7, 10     entry C          line   198 file /opt/psi/4/master/share/psi4/basis/def2-universal-jkfit.gbs 
    atoms 2-3, 5-6, 8, 11 entry H          line    18 file /opt/psi/4/master/share/psi4/basis/def2-universal-jkfit.gbs 
    atoms 9, 12           entry O          line   318 file /opt/psi/4/master/share/psi4/basis/def2-universal-jkfit.gbs 

  ==> Integral Setup <==

  ==> DiskDFJK: Density-Fitted J/K Matrices <==

    J tasked:                  Yes
    K tasked:                  Yes
    wK tasked:                  No
    OpenMP threads:              4
    Integrals threads:           4
    Memory [MiB]:              375
    Algorithm:                Core
    Integral Cache:           NONE
    Schwarz Cutoff:          1E-12
    Fitting Condition:       1E-10

   => Auxiliary Basis Set <=

  Basis Set: (PCSEG-0 AUX)
    Blend: DEF2-UNIVERSAL-JKFIT
    Number of shells: 186
    Number of basis function: 562
    Number of Cartesian functions: 662
    Spherical Harmonics?: true
    Max angular momentum: 4

  Minimum eigenvalue in the overlap matrix is 1.2759070455E-03.
  Reciprocal condition number of the overlap matrix is 2.1003997114E-04.
    Using symmetric orthogonalization.

  ==> Pre-Iterations <==

  SCF Guess: Superposition of Atomic Densities via on-the-fly atomic UHF (no occupation information).

   -------------------------
    Irrep   Nso     Nmo    
   -------------------------
     A         66      66 
   -------------------------
    Total      66      66
   -------------------------

  ==> Iterations <==

                           Total Energy        Delta E     RMS |[F,P]|

   @DF-RHF iter SAD:  -303.78339972178878   -3.03783e+02   0.00000e+00 
   @DF-RHF iter   1:  -303.56519292742934    2.18207e-01   7.20929e-03 DIIS
   @DF-RHF iter   2:  -303.66409445202731   -9.89015e-02   3.86655e-03 DIIS
   @DF-RHF iter   3:  -303.68844211783329   -2.43477e-02   6.09772e-04 DIIS
   @DF-RHF iter   4:  -303.68958207481955   -1.13996e-03   1.89640e-04 DIIS
   @DF-RHF iter   5:  -303.68967045492974   -8.83801e-05   4.01158e-05 DIIS
   @DF-RHF iter   6:  -303.68967757319496   -7.11827e-06   8.09106e-06 DIIS
   @DF-RHF iter   7:  -303.68967794480750   -3.71613e-07   1.67214e-06 DIIS
   @DF-RHF iter   8:  -303.68967795791127   -1.31038e-08   5.23642e-07 DIIS
   @DF-RHF iter   9:  -303.68967795924658   -1.33531e-09   1.00102e-07 DIIS
   @DF-RHF iter  10:  -303.68967795930951   -6.29257e-11   1.73963e-08 DIIS
   @DF-RHF iter  11:  -303.68967795931133   -1.81899e-12   5.30527e-09 DIIS
   @DF-RHF iter  12:  -303.68967795931115    1.70530e-13   2.16730e-09 DIIS
   @DF-RHF iter  13:  -303.68967795931167   -5.11591e-13   2.00494e-10 DIIS
   @DF-RHF iter  14:  -303.68967795931121    4.54747e-13   6.31964e-11 DIIS
  Energy and wave function converged.


  ==> Post-Iterations <==

    Orbital Energies [Eh]
    ---------------------

    Doubly Occupied:                                                      

       1A    -20.583855     2A    -20.583769     3A    -11.368395  
       4A    -11.368388     5A    -11.254733     6A    -11.254330  
       7A     -1.548731     8A     -1.317313     9A     -1.091236  
      10A     -1.011022    11A     -0.822277    12A     -0.787975  
      13A     -0.770577    14A     -0.684673    15A     -0.664446  
      16A     -0.661712    17A     -0.555071    18A     -0.534502  
      19A     -0.528183    20A     -0.525271    21A     -0.518291  
      22A     -0.467594    23A     -0.441363  

    Virtual:                                                              

      24A      0.203676    25A      0.232831    26A      0.236689  
      27A      0.242123    28A      0.254671    29A      0.267677  
      30A      0.316053    31A      0.351970    32A      0.354563  
      33A      0.388125    34A      0.408845    35A      0.474139  
      36A      0.575737    37A      0.796081    38A      0.799747  
      39A      0.821161    40A      0.924781    41A      0.933995  
      42A      0.944525    43A      0.951743    44A      1.004334  
      45A      1.005467    46A      1.033537    47A      1.061452  
      48A      1.071805    49A      1.136429    50A      1.149805  
      51A      1.171670    52A      1.172754    53A      1.210670  
      54A      1.239184    55A      1.422141    56A      1.454276  
      57A      1.484919    58A      1.525914    59A      1.692442  
      60A      1.710133    61A      1.929897    62A      1.952660  
      63A      2.144776    64A      2.303181    65A      2.379059  
      66A      2.449464  

    Final Occupation by Irrep:
              A 
    DOCC [    23 ]

  @DF-RHF Final Energy:  -303.68967795931121

   => Energetics <=

    Nuclear Repulsion Energy =            258.0652966930359185
    One-Electron Energy =                -924.8225323963821438
    Two-Electron Energy =                 363.0675577440349571
    Total Energy =                       -303.6896779593112115

Computation Completed

  //>>>>>>>>>>>>>>>>>>>>>>>>>>>>>>>>>>>//
  //                SCF                //
  //<<<<<<<<<<<<<<<<<<<<<<<<<<<<<<<<<<<//

   => Loading Basis Set <=

    Name: HEAVY-AUG-CC-PV(Q+D)Z
    Role: ORBITAL
    Keyword: BASIS
    atoms 1, 4, 7, 10     entry C          line   333 file /opt/psi/4/master/share/psi4/basis/heavy-aug-cc-pv_qpd_z.gbs 
    atoms 2-3, 5-6, 8, 11 entry H          line    86 file /opt/psi/4/master/share/psi4/basis/heavy-aug-cc-pv_qpd_z.gbs 
    atoms 9, 12           entry O          line   453 file /opt/psi/4/master/share/psi4/basis/heavy-aug-cc-pv_qpd_z.gbs 


         ---------------------------------------------------------
                                   SCF
               by Justin Turney, Rob Parrish, Andy Simmonett
                          and Daniel G. A. Smith
                              RHF Reference
                        4 Threads,    500 MiB Core
         ---------------------------------------------------------

  ==> Geometry <==

    Molecular point group: c1
    Full point group: C1

    Geometry (in Angstrom), charge = 0, multiplicity = 1:

       Center              X                  Y                   Z               Mass       
    ------------   -----------------  -----------------  -----------------  -----------------
         C           -1.169969463277    -0.774075714550     0.000473516936    12.000000000000
         H           -1.617084136019    -1.211448694480    -0.890848982219     1.007825032230
         H           -1.617392819846    -1.211826965513     0.889506835739     1.007825032230
         C           -1.170087779817     0.773896027727    -0.000163551340    12.000000000000
         H           -1.617569348929     1.211199398219     0.890034898837     1.007825032230
         H           -1.617281187895     1.211577815977    -0.890320224936     1.007825032230
         C            0.356732242281     0.920125672349     0.000110833521    12.000000000000
         H            0.841131882643     1.891613462867     0.000388329818     1.007825032230
         O            0.761089349969     0.000265515946    -1.017913962624    15.994914619570
         C            0.356873025802    -0.920070811231    -0.000262968418    12.000000000000
         H            0.841421920213    -1.891484159819    -0.000377503404     1.007825032230
         O            0.760747723083    -0.000148607553     1.017897415371    15.994914619570

  Running in c1 symmetry.

  Rotational constants: A =      0.20029  B =      0.16407  C =      0.14758 [cm^-1]
  Rotational constants: A =   6004.67167  B =   4918.80490  C =   4424.29031 [MHz]
  Nuclear repulsion =  258.065296693035918

  Charge       = 0
  Multiplicity = 1
  Electrons    = 46
  Nalpha       = 23
  Nbeta        = 23

  ==> Algorithm <==

  SCF Algorithm Type is DF.
  DIIS enabled.
  MOM disabled.
  Fractional occupation disabled.
  Guess Type is SAD.
  Energy threshold   = 1.00e-10
  Density threshold  = 1.00e-10
  Integral threshold = 0.00e+00

  ==> Primary Basis <==

  Basis Set: HEAVY-AUG-CC-PV(Q+D)Z
    Blend: HEAVY-AUG-CC-PV(Q+D)Z
    Number of shells: 180
    Number of basis function: 660
    Number of Cartesian functions: 840
    Spherical Harmonics?: true
    Max angular momentum: 4

   => Loading Basis Set <=

    Name: (HEAVY-AUG-CC-PV(Q+D)Z AUX)
    Role: JKFIT
    Keyword: DF_BASIS_SCF
    atoms 1, 4, 7, 10     entry C          line   214 file /opt/psi/4/master/share/psi4/basis/heavy-aug-cc-pvqz-jkfit.gbs 
    atoms 2-3, 5-6, 8, 11 entry H          line   116 file /opt/psi/4/master/share/psi4/basis/heavy-aug-cc-pvqz-jkfit.gbs 
    atoms 9, 12           entry O          line   354 file /opt/psi/4/master/share/psi4/basis/heavy-aug-cc-pvqz-jkfit.gbs 


  Computing basis projection from PCSEG-0 to HEAVY-AUG-CC-PV(Q+D)Z

  ==> Integral Setup <==

  ==> DiskDFJK: Density-Fitted J/K Matrices <==

    J tasked:                  Yes
    K tasked:                  Yes
    wK tasked:                  No
    OpenMP threads:              4
    Integrals threads:           4
    Memory [MiB]:              375
    Algorithm:                Disk
    Integral Cache:           NONE
    Schwarz Cutoff:          1E-12
    Fitting Condition:       1E-10

   => Auxiliary Basis Set <=

  Basis Set: (HEAVY-AUG-CC-PV(Q+D)Z AUX)
    Blend: HEAVY-AUG-CC-PVQZ-JKFIT
    Number of shells: 282
    Number of basis function: 1158
    Number of Cartesian functions: 1584
    Spherical Harmonics?: true
    Max angular momentum: 5

  Minimum eigenvalue in the overlap matrix is 1.0732451208E-06.
  Reciprocal condition number of the overlap matrix is 6.8708461193E-08.
    Using symmetric orthogonalization.

  ==> Pre-Iterations <==

  SCF Guess: Orbitals guess was supplied from a previous computation.

   -------------------------
    Irrep   Nso     Nmo    
   -------------------------
     A        660     660 
   -------------------------
    Total     660     660
   -------------------------

  ==> Iterations <==

                           Total Energy        Delta E     RMS |[F,P]|

   @DF-RHF iter   0:  -304.22023679905146   -3.04220e+02   4.49022e-03 
   @DF-RHF iter   1:  -304.73498005939672   -5.14743e-01   3.39666e-04 DIIS
   @DF-RHF iter   2:  -304.75113869244484   -1.61586e-02   1.55042e-04 DIIS
   @DF-RHF iter   3:  -304.75506002639383   -3.92133e-03   2.79067e-05 DIIS
   @DF-RHF iter   4:  -304.75533343799589   -2.73412e-04   7.95902e-06 DIIS
   @DF-RHF iter   5:  -304.75535465814295   -2.12201e-05   3.36887e-06 DIIS
   @DF-RHF iter   6:  -304.75535791769573   -3.25955e-06   8.32210e-07 DIIS
   @DF-RHF iter   7:  -304.75535820104625   -2.83351e-07   1.75486e-07 DIIS
   @DF-RHF iter   8:  -304.75535821488791   -1.38417e-08   4.59182e-08 DIIS
   @DF-RHF iter   9:  -304.75535821592740   -1.03950e-09   1.49401e-08 DIIS
   @DF-RHF iter  10:  -304.75535821601733   -8.99263e-11   3.66657e-09 DIIS
   @DF-RHF iter  11:  -304.75535821602483   -7.50333e-12   9.31737e-10 DIIS
   @DF-RHF iter  12:  -304.75535821602415    6.82121e-13   2.99389e-10 DIIS
   @DF-RHF iter  13:  -304.75535821602472   -5.68434e-13   1.29956e-10 DIIS
   @DF-RHF iter  14:  -304.75535821602517   -4.54747e-13   3.03127e-11 DIIS
  Energy and wave function converged.


  ==> Post-Iterations <==

    Orbital Energies [Eh]
    ---------------------

    Doubly Occupied:                                                      

       1A    -20.564308     2A    -20.564244     3A    -11.346887  
       4A    -11.346861     5A    -11.235143     6A    -11.234570  
       7A     -1.500702     8A     -1.296008     9A     -1.066658  
      10A     -0.989830    11A     -0.810475    12A     -0.787501  
      13A     -0.749047    14A     -0.676494    15A     -0.657264  
      16A     -0.645420    17A     -0.537651    18A     -0.525364  
      19A     -0.519437    20A     -0.511674    21A     -0.508717  
      22A     -0.460239    23A     -0.431564  

    Virtual:                                                              

      24A      0.041675    25A      0.042968    26A      0.050513  
      27A      0.062646    28A      0.063960    29A      0.079817  
      30A      0.080059    31A      0.083464    32A      0.101518  
      33A      0.110293    34A      0.111772    35A      0.112234  
      36A      0.139395    37A      0.151952    38A      0.166529  
      39A      0.171524    40A      0.178362    41A      0.178844  
      42A      0.188737    43A      0.188988    44A      0.199221  
      45A      0.207556    46A      0.226249    47A      0.227056  
      48A      0.230174    49A      0.258089    50A      0.261569  
      51A      0.270712    52A      0.271384    53A      0.272947  
      54A      0.287074    55A      0.288262    56A      0.291647  
      57A      0.301310    58A      0.316700    59A      0.319867  
      60A      0.325871    61A      0.333516    62A      0.338446  
      63A      0.356647    64A      0.358175    65A      0.370105  
      66A      0.381343    67A      0.388261    68A      0.390862  
      69A      0.391767    70A      0.392710    71A      0.399316  
      72A      0.399399    73A      0.413680    74A      0.420627  
      75A      0.421964    76A      0.440183    77A      0.452934  
      78A      0.457646    79A      0.465854    80A      0.495166  
      81A      0.517077    82A      0.518900    83A      0.523903  
      84A      0.528052    85A      0.550627    86A      0.572870  
      87A      0.575686    88A      0.586251    89A      0.590231  
      90A      0.598517    91A      0.600926    92A      0.614777  
      93A      0.629702    94A      0.642223    95A      0.656507  
      96A      0.659729    97A      0.686969    98A      0.690280  
      99A      0.697247   100A      0.704700   101A      0.716272  
     102A      0.721674   103A      0.735155   104A      0.744971  
     105A      0.759927   106A      0.766576   107A      0.790058  
     108A      0.791627   109A      0.794840   110A      0.796311  
     111A      0.828635   112A      0.832212   113A      0.833898  
     114A      0.850083   115A      0.860612   116A      0.876237  
     117A      0.885290   118A      0.898067   119A      0.920655  
     120A      0.939405   121A      0.948139   122A      0.960277  
     123A      0.960878   124A      0.987387   125A      1.002419  
     126A      1.010042   127A      1.012678   128A      1.017654  
     129A      1.034984   130A      1.035276   131A      1.047534  
     132A      1.060652   133A      1.071487   134A      1.074832  
     135A      1.098085   136A      1.114370   137A      1.129141  
     138A      1.140896   139A      1.154382   140A      1.160416  
     141A      1.160932   142A      1.166889   143A      1.167437  
     144A      1.177479   145A      1.190977   146A      1.198626  
     147A      1.209801   148A      1.222555   149A      1.231016  
     150A      1.235221   151A      1.238360   152A      1.240266  
     153A      1.246829   154A      1.276549   155A      1.278356  
     156A      1.289152   157A      1.289661   158A      1.306527  
     159A      1.315473   160A      1.329676   161A      1.371372  
     162A      1.373763   163A      1.410046   164A      1.410986  
     165A      1.436339   166A      1.442542   167A      1.459603  
     168A      1.469889   169A      1.477057   170A      1.487267  
     171A      1.490757   172A      1.510011   173A      1.525714  
     174A      1.534687   175A      1.545093   176A      1.594816  
     177A      1.595379   178A      1.620296   179A      1.622898  
     180A      1.626150   181A      1.626608   182A      1.646564  
     183A      1.684319   184A      1.686557   185A      1.701389  
     186A      1.723981   187A      1.727738   188A      1.734291  
     189A      1.754694   190A      1.777198   191A      1.779331  
     192A      1.814013   193A      1.867245   194A      1.875341  
     195A      1.887291   196A      1.898813   197A      1.909163  
     198A      1.928041   199A      1.960691   200A      1.968547  
     201A      1.998846   202A      2.000487   203A      2.017398  
     204A      2.022267   205A      2.026885   206A      2.029928  
     207A      2.035264   208A      2.038990   209A      2.045028  
     210A      2.106248   211A      2.115961   212A      2.126278  
     213A      2.142405   214A      2.146005   215A      2.173571  
     216A      2.189824   217A      2.190036   218A      2.212299  
     219A      2.255197   220A      2.261689   221A      2.270483  
     222A      2.296194   223A      2.301646   224A      2.309497  
     225A      2.339358   226A      2.342061   227A      2.362190  
     228A      2.364493   229A      2.366157   230A      2.377099  
     231A      2.390873   232A      2.400874   233A      2.407238  
     234A      2.423182   235A      2.442837   236A      2.448312  
     237A      2.460436   238A      2.487643   239A      2.492594  
     240A      2.518745   241A      2.527665   242A      2.536891  
     243A      2.547378   244A      2.561383   245A      2.590104  
     246A      2.594491   247A      2.622093   248A      2.634943  
     249A      2.635245   250A      2.648762   251A      2.666447  
     252A      2.683424   253A      2.701584   254A      2.719581  
     255A      2.734166   256A      2.735210   257A      2.753978  
     258A      2.766243   259A      2.766698   260A      2.802208  
     261A      2.807368   262A      2.807734   263A      2.835742  
     264A      2.861936   265A      2.870260   266A      2.923799  
     267A      2.941337   268A      2.945627   269A      2.970799  
     270A      2.977446   271A      2.988928   272A      2.992838  
     273A      3.010209   274A      3.033616   275A      3.043728  
     276A      3.051786   277A      3.078440   278A      3.083617  
     279A      3.084054   280A      3.106247   281A      3.111534  
     282A      3.137728   283A      3.148560   284A      3.156348  
     285A      3.175072   286A      3.190076   287A      3.229408  
     288A      3.249954   289A      3.260142   290A      3.270347  
     291A      3.291435   292A      3.297637   293A      3.322579  
     294A      3.364280   295A      3.368621   296A      3.400837  
     297A      3.403619   298A      3.406722   299A      3.434570  
     300A      3.457028   301A      3.465009   302A      3.480925  
     303A      3.503565   304A      3.523600   305A      3.537309  
     306A      3.554021   307A      3.574708   308A      3.599607  
     309A      3.614057   310A      3.619448   311A      3.641393  
     312A      3.664429   313A      3.694077   314A      3.706959  
     315A      3.716424   316A      3.748954   317A      3.754419  
     318A      3.757646   319A      3.810028   320A      3.836568  
     321A      3.846434   322A      3.847079   323A      3.877059  
     324A      3.908998   325A      3.910772   326A      3.921789  
     327A      3.951871   328A      3.964977   329A      3.984753  
     330A      4.043586   331A      4.048615   332A      4.051409  
     333A      4.062992   334A      4.085820   335A      4.100898  
     336A      4.121121   337A      4.139594   338A      4.157980  
     339A      4.172892   340A      4.203873   341A      4.206177  
     342A      4.219899   343A      4.243339   344A      4.250291  
     345A      4.276831   346A      4.296128   347A      4.317061  
     348A      4.336978   349A      4.340258   350A      4.364917  
     351A      4.408740   352A      4.435541   353A      4.446885  
     354A      4.457895   355A      4.470303   356A      4.490490  
     357A      4.500434   358A      4.513259   359A      4.525642  
     360A      4.542199   361A      4.570987   362A      4.598140  
     363A      4.637781   364A      4.662213   365A      4.676482  
     366A      4.698609   367A      4.699562   368A      4.707920  
     369A      4.719855   370A      4.747409   371A      4.758602  
     372A      4.763634   373A      4.788978   374A      4.831074  
     375A      4.835581   376A      4.835832   377A      4.848908  
     378A      4.860815   379A      4.913644   380A      4.944924  
     381A      4.988912   382A      5.007352   383A      5.010658  
     384A      5.035567   385A      5.062227   386A      5.124597  
     387A      5.172064   388A      5.175545   389A      5.185963  
     390A      5.245436   391A      5.255440   392A      5.258073  
     393A      5.285424   394A      5.295828   395A      5.311323  
     396A      5.348062   397A      5.368095   398A      5.391709  
     399A      5.424092   400A      5.503527   401A      5.525558  
     402A      5.555328   403A      5.596620   404A      5.637667  
     405A      5.660246   406A      5.661144   407A      5.677813  
     408A      5.794358   409A      5.837805   410A      5.838858  
     411A      5.844762   412A      5.909780   413A      5.976758  
     414A      6.039208   415A      6.108071   416A      6.148319  
     417A      6.191851   418A      6.220778   419A      6.234539  
     420A      6.242290   421A      6.296553   422A      6.339767  
     423A      6.344609   424A      6.348897   425A      6.372108  
     426A      6.399428   427A      6.422597   428A      6.464006  
     429A      6.490375   430A      6.496959   431A      6.514518  
     432A      6.526711   433A      6.539711   434A      6.582963  
     435A      6.586837   436A      6.619046   437A      6.642271  
     438A      6.648345   439A      6.655586   440A      6.690299  
     441A      6.702141   442A      6.705531   443A      6.717214  
     444A      6.755188   445A      6.774572   446A      6.786827  
     447A      6.815615   448A      6.821284   449A      6.856823  
     450A      6.896918   451A      6.909077   452A      6.919934  
     453A      6.923566   454A      6.924116   455A      6.947446  
     456A      6.980434   457A      6.996240   458A      7.014737  
     459A      7.040715   460A      7.095651   461A      7.107814  
     462A      7.111013   463A      7.138372   464A      7.160363  
     465A      7.180994   466A      7.195234   467A      7.208080  
     468A      7.223500   469A      7.224895   470A      7.254966  
     471A      7.280885   472A      7.312258   473A      7.360737  
     474A      7.369772   475A      7.371931   476A      7.420559  
     477A      7.440524   478A      7.442380   479A      7.477972  
     480A      7.541502   481A      7.546714   482A      7.601578  
     483A      7.605630   484A      7.618251   485A      7.642416  
     486A      7.721900   487A      7.732699   488A      7.751707  
     489A      7.756993   490A      7.785040   491A      7.818499  
     492A      7.840955   493A      7.848087   494A      7.860806  
     495A      7.924978   496A      7.951690   497A      7.954259  
     498A      7.989372   499A      7.999410   500A      8.023067  
     501A      8.026544   502A      8.049832   503A      8.094336  
     504A      8.117688   505A      8.153655   506A      8.157789  
     507A      8.198819   508A      8.207206   509A      8.328892  
     510A      8.337048   511A      8.342464   512A      8.355974  
     513A      8.389660   514A      8.421835   515A      8.426507  
     516A      8.485051   517A      8.508906   518A      8.511006  
     519A      8.530602   520A      8.555905   521A      8.568084  
     522A      8.594991   523A      8.611286   524A      8.616884  
     525A      8.656222   526A      8.697268   527A      8.712341  
     528A      8.721206   529A      8.766468   530A      8.816457  
     531A      8.831831   532A      8.840714   533A      8.843934  
     534A      8.847114   535A      8.891244   536A      8.901436  
     537A      8.929387   538A      8.942810   539A      8.958681  
     540A      9.010275   541A      9.017582   542A      9.029755  
     543A      9.038680   544A      9.048761   545A      9.067382  
     546A      9.086034   547A      9.110972   548A      9.118751  
     549A      9.173234   550A      9.180006   551A      9.191483  
     552A      9.236783   553A      9.252974   554A      9.314279  
     555A      9.345220   556A      9.352928   557A      9.357191  
     558A      9.368412   559A      9.399622   560A      9.453392  
     561A      9.503885   562A      9.515880   563A      9.528619  
     564A      9.557298   565A      9.651725   566A      9.660798  
     567A      9.727487   568A      9.761187   569A      9.774528  
     570A      9.798148   571A      9.834931   572A      9.897965  
     573A      9.925023   574A      9.932986   575A      9.961979  
     576A     10.071689   577A     10.115221   578A     10.233448  
     579A     10.243317   580A     10.257125   581A     10.293718  
     582A     10.419166   583A     10.480188   584A     10.502221  
     585A     10.516044   586A     10.589117   587A     10.626403  
     588A     10.648890   589A     10.782777   590A     10.790974  
     591A     10.821421   592A     10.826136   593A     10.968528  
     594A     11.005057   595A     11.058835   596A     11.083904  
     597A     11.097499   598A     11.107435   599A     11.146781  
     600A     11.151409   601A     11.177047   602A     11.220013  
     603A     11.235430   604A     11.258293   605A     11.351346  
     606A     11.387295   607A     11.457323   608A     11.465072  
     609A     11.512761   610A     11.513878   611A     11.526832  
     612A     11.557593   613A     11.635235   614A     11.657712  
     615A     11.744205   616A     11.829177   617A     11.848401  
     618A     11.884401   619A     11.908648   620A     11.927869  
     621A     12.220211   622A     12.278271   623A     12.317109  
     624A     12.400193   625A     12.664409   626A     12.677366  
     627A     12.821846   628A     12.908949   629A     12.949919  
     630A     13.058054   631A     13.097386   632A     13.114368  
     633A     13.195947   634A     13.235566   635A     13.266411  
     636A     13.357660   637A     13.389951   638A     13.401311  
     639A     13.425738   640A     13.532363   641A     13.535643  
     642A     13.555003   643A     13.742059   644A     13.751061  
     645A     13.819522   646A     13.820805   647A     13.867417  
     648A     13.932508   649A     14.007240   650A     14.018827  
     651A     14.164442   652A     14.172698   653A     14.730334  
     654A     14.927191   655A     27.317914   656A     27.905508  
     657A     28.050565   658A     28.604048   659A     44.849461  
     660A     45.764629  

    Final Occupation by Irrep:
              A 
    DOCC [    23 ]

  @DF-RHF Final Energy:  -304.75535821602517

   => Energetics <=

    Nuclear Repulsion Energy =            258.0652966930359185
    One-Electron Energy =                -927.7091919541003335
    Two-Electron Energy =                 364.8885370450392998
    Total Energy =                       -304.7553582160251722

Computation Completed


Properties will be evaluated at   0.000000,   0.000000,   0.000000 [a0]

Properties computed using the SCF density matrix

  Nuclear Dipole Moment: [e a0]
     X:    -4.4801      Y:    -0.0003      Z:    -0.0015

  Electronic Dipole Moment: [e a0]
     X:     3.7443      Y:     0.0003      Z:     0.0018

  Dipole Moment: [e a0]
     X:    -0.7358      Y:    -0.0001      Z:     0.0002     Total:     0.7358

  Dipole Moment: [D]
     X:    -1.8703      Y:    -0.0001      Z:     0.0006     Total:     1.8703


*** tstop() called on n077 at Fri Jun  5 11:36:50 2020
Module time:
	user time   =     159.03 seconds =       2.65 minutes
	system time =       5.92 seconds =       0.10 minutes
	total time  =         43 seconds =       0.72 minutes
Total time:
	user time   =     159.03 seconds =       2.65 minutes
	system time =       5.92 seconds =       0.10 minutes
	total time  =         43 seconds =       0.72 minutes

*** tstart() called on n077
*** at Fri Jun  5 11:36:50 2020


  //>>>>>>>>>>>>>>>>>>>>>>>>>>>>>>>>>>>//
  //               DFMP2               //
  //<<<<<<<<<<<<<<<<<<<<<<<<<<<<<<<<<<<//

   => Loading Basis Set <=

    Name: (HEAVY-AUG-CC-PV(Q+D)Z AUX)
    Role: RIFIT
    Keyword: DF_BASIS_MP2
    atoms 1, 4, 7, 10     entry C          line   180 file /opt/psi/4/master/share/psi4/basis/heavy-aug-cc-pvqz-ri.gbs 
    atoms 2-3, 5-6, 8, 11 entry H          line    44 file /opt/psi/4/master/share/psi4/basis/heavy-aug-cc-pvqz-ri.gbs 
    atoms 9, 12           entry O          line   328 file /opt/psi/4/master/share/psi4/basis/heavy-aug-cc-pvqz-ri.gbs 

	 --------------------------------------------------------
	                          DF-MP2                         
	      2nd-Order Density-Fitted Moller-Plesset Theory     
	              RMP2 Wavefunction,   4 Threads             
	                                                         
	        Rob Parrish, Justin Turney, Andy Simmonett,      
	           Ed Hohenstein, and C. David Sherrill          
	 --------------------------------------------------------

   => Auxiliary Basis Set <=

  Basis Set: (HEAVY-AUG-CC-PV(Q+D)Z AUX)
    Blend: HEAVY-AUG-CC-PVQZ-RI
    Number of shells: 306
    Number of basis function: 1338
    Number of Cartesian functions: 1842
    Spherical Harmonics?: true
    Max angular momentum: 5

	 --------------------------------------------------------
	                 NBF =   660, NAUX =  1338
	 --------------------------------------------------------
	   CLASS    FOCC     OCC    AOCC    AVIR     VIR    FVIR
	   PAIRS       6      23      17     637     637       0
	 --------------------------------------------------------

	-----------------------------------------------------------
	 ==================> DF-MP2 Energies <==================== 
	-----------------------------------------------------------
	 Reference Energy          =    -304.7553582160251722 [Eh]
	 Singles Energy            =      -0.0000000000000000 [Eh]
	 Same-Spin Energy          =      -0.2937698290484778 [Eh]
	 Opposite-Spin Energy      =      -0.9223793337356999 [Eh]
	 Correlation Energy        =      -1.2161491627841776 [Eh]
	 Total Energy              =    -305.9715073788093491 [Eh]
	-----------------------------------------------------------
	 ================> DF-SCS-MP2 Energies <================== 
	-----------------------------------------------------------
	 SCS Same-Spin Scale       =       0.3333333333333333 [-]
	 SCS Opposite-Spin Scale   =       1.2000000000000000 [-]
	 SCS Same-Spin Energy      =      -0.0979232763494926 [Eh]
	 SCS Opposite-Spin Energy  =      -1.1068552004828398 [Eh]
	 SCS Correlation Energy    =      -1.2047784768323324 [Eh]
	 SCS Total Energy          =    -305.9601366928575317 [Eh]
	-----------------------------------------------------------


*** tstop() called on n077 at Fri Jun  5 11:36:58 2020
Module time:
	user time   =      29.63 seconds =       0.49 minutes
	system time =       0.52 seconds =       0.01 minutes
	total time  =          8 seconds =       0.13 minutes
Total time:
	user time   =     188.66 seconds =       3.14 minutes
	system time =       6.44 seconds =       0.11 minutes
	total time  =         51 seconds =       0.85 minutes

========================OPTAVC-XTPL==========================

MP2/QZ correlation energy -1.2161491627841776
SCF/QZ reference energy -304.7553582160252


=============================================================

Scratch directory: /tmp/

Scratch directory: /tmp/
    SCF Algorithm Type (re)set to DF.

*** tstart() called on n077
*** at Fri Jun  5 11:36:58 2020


  //>>>>>>>>>>>>>>>>>>>>>>>>>>>>>>>>>>>//
  //      Guess SCF, pcseg-0 Basis     //
  //<<<<<<<<<<<<<<<<<<<<<<<<<<<<<<<<<<<//

   => Loading Basis Set <=

    Name: PCSEG-0
    Role: ORBITAL
    Keyword: BASIS
    atoms 1, 4, 7, 10     entry C          line    71 file /opt/psi/4/master/share/psi4/basis/pcseg-0.gbs 
    atoms 2-3, 5-6, 8, 11 entry H          line    13 file /opt/psi/4/master/share/psi4/basis/pcseg-0.gbs 
    atoms 9, 12           entry O          line   103 file /opt/psi/4/master/share/psi4/basis/pcseg-0.gbs 


         ---------------------------------------------------------
                           SCF Castup computation                  
         ---------------------------------------------------------
                                   SCF
               by Justin Turney, Rob Parrish, Andy Simmonett
                          and Daniel G. A. Smith
                              RHF Reference
                        4 Threads,    500 MiB Core
         ---------------------------------------------------------

  ==> Geometry <==

    Molecular point group: c1
    Full point group: C1

    Geometry (in Angstrom), charge = 0, multiplicity = 1:

       Center              X                  Y                   Z               Mass       
    ------------   -----------------  -----------------  -----------------  -----------------
         C           -1.169969463277    -0.774075714550     0.000473516936    12.000000000000
         H           -1.617084136019    -1.211448694480    -0.890848982219     1.007825032230
         H           -1.617392819846    -1.211826965513     0.889506835739     1.007825032230
         C           -1.170087779817     0.773896027727    -0.000163551340    12.000000000000
         H           -1.617569348929     1.211199398219     0.890034898837     1.007825032230
         H           -1.617281187895     1.211577815977    -0.890320224936     1.007825032230
         C            0.356732242281     0.920125672349     0.000110833521    12.000000000000
         H            0.841131882643     1.891613462867     0.000388329818     1.007825032230
         O            0.761089349969     0.000265515946    -1.017913962624    15.994914619570
         C            0.356873025802    -0.920070811231    -0.000262968418    12.000000000000
         H            0.841421920213    -1.891484159819    -0.000377503404     1.007825032230
         O            0.760747723083    -0.000148607553     1.017897415371    15.994914619570

  Running in c1 symmetry.

  Rotational constants: A =      0.20029  B =      0.16407  C =      0.14758 [cm^-1]
  Rotational constants: A =   6004.67167  B =   4918.80490  C =   4424.29031 [MHz]
  Nuclear repulsion =  258.065296693035918

  Charge       = 0
  Multiplicity = 1
  Electrons    = 46
  Nalpha       = 23
  Nbeta        = 23

  ==> Algorithm <==

  SCF Algorithm Type is DF.
  DIIS enabled.
  MOM disabled.
  Fractional occupation disabled.
  Guess Type is SAD.
  Energy threshold   = 1.00e-10
  Density threshold  = 1.00e-10
  Integral threshold = 0.00e+00

  ==> Primary Basis <==

  Basis Set: PCSEG-0
    Blend: PCSEG-0
    Number of shells: 42
    Number of basis function: 66
    Number of Cartesian functions: 66
    Spherical Harmonics?: true
    Max angular momentum: 1

   => Loading Basis Set <=

    Name: (PCSEG-0 AUX)
    Role: JKFIT
    Keyword: DF_BASIS_SCF
    atoms 1, 4, 7, 10     entry C          line   198 file /opt/psi/4/master/share/psi4/basis/def2-universal-jkfit.gbs 
    atoms 2-3, 5-6, 8, 11 entry H          line    18 file /opt/psi/4/master/share/psi4/basis/def2-universal-jkfit.gbs 
    atoms 9, 12           entry O          line   318 file /opt/psi/4/master/share/psi4/basis/def2-universal-jkfit.gbs 

  ==> Integral Setup <==

  ==> DiskDFJK: Density-Fitted J/K Matrices <==

    J tasked:                  Yes
    K tasked:                  Yes
    wK tasked:                  No
    OpenMP threads:              4
    Integrals threads:           4
    Memory [MiB]:              375
    Algorithm:                Core
    Integral Cache:           NONE
    Schwarz Cutoff:          1E-12
    Fitting Condition:       1E-10

   => Auxiliary Basis Set <=

  Basis Set: (PCSEG-0 AUX)
    Blend: DEF2-UNIVERSAL-JKFIT
    Number of shells: 186
    Number of basis function: 562
    Number of Cartesian functions: 662
    Spherical Harmonics?: true
    Max angular momentum: 4

  Minimum eigenvalue in the overlap matrix is 1.2759070455E-03.
  Reciprocal condition number of the overlap matrix is 2.1003997114E-04.
    Using symmetric orthogonalization.

  ==> Pre-Iterations <==

  SCF Guess: Superposition of Atomic Densities via on-the-fly atomic UHF (no occupation information).

   -------------------------
    Irrep   Nso     Nmo    
   -------------------------
     A         66      66 
   -------------------------
    Total      66      66
   -------------------------

  ==> Iterations <==

                           Total Energy        Delta E     RMS |[F,P]|

   @DF-RHF iter SAD:  -303.78339972195670   -3.03783e+02   0.00000e+00 
   @DF-RHF iter   1:  -303.56519292760652    2.18207e-01   7.20929e-03 DIIS
   @DF-RHF iter   2:  -303.66409445220495   -9.89015e-02   3.86655e-03 DIIS
   @DF-RHF iter   3:  -303.68844211801161   -2.43477e-02   6.09772e-04 DIIS
   @DF-RHF iter   4:  -303.68958207499810   -1.13996e-03   1.89640e-04 DIIS
   @DF-RHF iter   5:  -303.68967045510840   -8.83801e-05   4.01158e-05 DIIS
   @DF-RHF iter   6:  -303.68967757337356   -7.11827e-06   8.09106e-06 DIIS
   @DF-RHF iter   7:  -303.68967794498656   -3.71613e-07   1.67214e-06 DIIS
   @DF-RHF iter   8:  -303.68967795808999   -1.31034e-08   5.23642e-07 DIIS
   @DF-RHF iter   9:  -303.68967795942490   -1.33491e-09   1.00102e-07 DIIS
   @DF-RHF iter  10:  -303.68967795948862   -6.37215e-11   1.73963e-08 DIIS
   @DF-RHF iter  11:  -303.68967795949015   -1.53477e-12   5.30527e-09 DIIS
   @DF-RHF iter  12:  -303.68967795948993    2.27374e-13   2.16730e-09 DIIS
   @DF-RHF iter  13:  -303.68967795949033   -3.97904e-13   2.00494e-10 DIIS
   @DF-RHF iter  14:  -303.68967795948998    3.41061e-13   6.31969e-11 DIIS
  Energy and wave function converged.


  ==> Post-Iterations <==

    Orbital Energies [Eh]
    ---------------------

    Doubly Occupied:                                                      

       1A    -20.583855     2A    -20.583769     3A    -11.368395  
       4A    -11.368388     5A    -11.254733     6A    -11.254330  
       7A     -1.548731     8A     -1.317313     9A     -1.091236  
      10A     -1.011022    11A     -0.822277    12A     -0.787975  
      13A     -0.770577    14A     -0.684673    15A     -0.664446  
      16A     -0.661712    17A     -0.555071    18A     -0.534502  
      19A     -0.528183    20A     -0.525271    21A     -0.518291  
      22A     -0.467594    23A     -0.441363  

    Virtual:                                                              

      24A      0.203676    25A      0.232831    26A      0.236689  
      27A      0.242123    28A      0.254671    29A      0.267677  
      30A      0.316053    31A      0.351970    32A      0.354563  
      33A      0.388125    34A      0.408845    35A      0.474139  
      36A      0.575737    37A      0.796081    38A      0.799747  
      39A      0.821161    40A      0.924781    41A      0.933995  
      42A      0.944525    43A      0.951743    44A      1.004334  
      45A      1.005467    46A      1.033537    47A      1.061452  
      48A      1.071805    49A      1.136429    50A      1.149805  
      51A      1.171670    52A      1.172754    53A      1.210670  
      54A      1.239184    55A      1.422141    56A      1.454276  
      57A      1.484919    58A      1.525914    59A      1.692442  
      60A      1.710133    61A      1.929897    62A      1.952660  
      63A      2.144776    64A      2.303181    65A      2.379059  
      66A      2.449464  

    Final Occupation by Irrep:
              A 
    DOCC [    23 ]

  @DF-RHF Final Energy:  -303.68967795948998

   => Energetics <=

    Nuclear Repulsion Energy =            258.0652966930359185
    One-Electron Energy =                -924.8225323966045153
    Two-Electron Energy =                 363.0675577440785560
    Total Energy =                       -303.6896779594899840

Computation Completed

  //>>>>>>>>>>>>>>>>>>>>>>>>>>>>>>>>>>>//
  //                SCF                //
  //<<<<<<<<<<<<<<<<<<<<<<<<<<<<<<<<<<<//

   => Loading Basis Set <=

    Name: HEAVY-AUG-CC-PV(T+D)Z
    Role: ORBITAL
    Keyword: BASIS
    atoms 1, 4, 7, 10     entry C          line   273 file /opt/psi/4/master/share/psi4/basis/heavy-aug-cc-pv_tpd_z.gbs 
    atoms 2-3, 5-6, 8, 11 entry H          line    86 file /opt/psi/4/master/share/psi4/basis/heavy-aug-cc-pv_tpd_z.gbs 
    atoms 9, 12           entry O          line   365 file /opt/psi/4/master/share/psi4/basis/heavy-aug-cc-pv_tpd_z.gbs 


         ---------------------------------------------------------
                                   SCF
               by Justin Turney, Rob Parrish, Andy Simmonett
                          and Daniel G. A. Smith
                              RHF Reference
                        4 Threads,    500 MiB Core
         ---------------------------------------------------------

  ==> Geometry <==

    Molecular point group: c1
    Full point group: C1

    Geometry (in Angstrom), charge = 0, multiplicity = 1:

       Center              X                  Y                   Z               Mass       
    ------------   -----------------  -----------------  -----------------  -----------------
         C           -1.169969463277    -0.774075714550     0.000473516936    12.000000000000
         H           -1.617084136019    -1.211448694480    -0.890848982219     1.007825032230
         H           -1.617392819846    -1.211826965513     0.889506835739     1.007825032230
         C           -1.170087779817     0.773896027727    -0.000163551340    12.000000000000
         H           -1.617569348929     1.211199398219     0.890034898837     1.007825032230
         H           -1.617281187895     1.211577815977    -0.890320224936     1.007825032230
         C            0.356732242281     0.920125672349     0.000110833521    12.000000000000
         H            0.841131882643     1.891613462867     0.000388329818     1.007825032230
         O            0.761089349969     0.000265515946    -1.017913962624    15.994914619570
         C            0.356873025802    -0.920070811231    -0.000262968418    12.000000000000
         H            0.841421920213    -1.891484159819    -0.000377503404     1.007825032230
         O            0.760747723083    -0.000148607553     1.017897415371    15.994914619570

  Running in c1 symmetry.

  Rotational constants: A =      0.20029  B =      0.16407  C =      0.14758 [cm^-1]
  Rotational constants: A =   6004.67167  B =   4918.80490  C =   4424.29031 [MHz]
  Nuclear repulsion =  258.065296693035918

  Charge       = 0
  Multiplicity = 1
  Electrons    = 46
  Nalpha       = 23
  Nbeta        = 23

  ==> Algorithm <==

  SCF Algorithm Type is DF.
  DIIS enabled.
  MOM disabled.
  Fractional occupation disabled.
  Guess Type is SAD.
  Energy threshold   = 1.00e-10
  Density threshold  = 1.00e-10
  Integral threshold = 0.00e+00

  ==> Primary Basis <==

  Basis Set: HEAVY-AUG-CC-PV(T+D)Z
    Blend: HEAVY-AUG-CC-PV(T+D)Z
    Number of shells: 120
    Number of basis function: 360
    Number of Cartesian functions: 420
    Spherical Harmonics?: true
    Max angular momentum: 3

   => Loading Basis Set <=

    Name: (HEAVY-AUG-CC-PV(T+D)Z AUX)
    Role: JKFIT
    Keyword: DF_BASIS_SCF
    atoms 1, 4, 7, 10     entry C          line   200 file /opt/psi/4/master/share/psi4/basis/heavy-aug-cc-pvtz-jkfit.gbs 
    atoms 2-3, 5-6, 8, 11 entry H          line   116 file /opt/psi/4/master/share/psi4/basis/heavy-aug-cc-pvtz-jkfit.gbs 
    atoms 9, 12           entry O          line   324 file /opt/psi/4/master/share/psi4/basis/heavy-aug-cc-pvtz-jkfit.gbs 


  Computing basis projection from PCSEG-0 to HEAVY-AUG-CC-PV(T+D)Z

  ==> Integral Setup <==

  ==> DiskDFJK: Density-Fitted J/K Matrices <==

    J tasked:                  Yes
    K tasked:                  Yes
    wK tasked:                  No
    OpenMP threads:              4
    Integrals threads:           4
    Memory [MiB]:              375
    Algorithm:                Disk
    Integral Cache:           NONE
    Schwarz Cutoff:          1E-12
    Fitting Condition:       1E-10

   => Auxiliary Basis Set <=

  Basis Set: (HEAVY-AUG-CC-PV(T+D)Z AUX)
    Blend: HEAVY-AUG-CC-PVTZ-JKFIT
    Number of shells: 240
    Number of basis function: 804
    Number of Cartesian functions: 996
    Spherical Harmonics?: true
    Max angular momentum: 4

  Minimum eigenvalue in the overlap matrix is 5.4684964672E-06.
  Reciprocal condition number of the overlap matrix is 3.9906487697E-07.
    Using symmetric orthogonalization.

  ==> Pre-Iterations <==

  SCF Guess: Orbitals guess was supplied from a previous computation.

   -------------------------
    Irrep   Nso     Nmo    
   -------------------------
     A        360     360 
   -------------------------
    Total     360     360
   -------------------------

  ==> Iterations <==

                           Total Energy        Delta E     RMS |[F,P]|

   @DF-RHF iter   0:  -304.36014057072936   -3.04360e+02   4.19514e-03 
   @DF-RHF iter   1:  -304.71756878123023   -3.57428e-01   5.78106e-04 DIIS
   @DF-RHF iter   2:  -304.73285768977445   -1.52889e-02   2.73873e-04 DIIS
   @DF-RHF iter   3:  -304.73658872104465   -3.73103e-03   4.82267e-05 DIIS
   @DF-RHF iter   4:  -304.73684889831441   -2.60177e-04   1.47396e-05 DIIS
   @DF-RHF iter   5:  -304.73686860713156   -1.97088e-05   6.03101e-06 DIIS
   @DF-RHF iter   6:  -304.73687204281225   -3.43568e-06   1.40532e-06 DIIS
   @DF-RHF iter   7:  -304.73687228799571   -2.45183e-07   3.05282e-07 DIIS
   @DF-RHF iter   8:  -304.73687230104565   -1.30499e-08   8.05466e-08 DIIS
   @DF-RHF iter   9:  -304.73687230195071   -9.05061e-10   2.56824e-08 DIIS
   @DF-RHF iter  10:  -304.73687230203547   -8.47535e-11   6.20576e-09 DIIS
   @DF-RHF iter  11:  -304.73687230204212   -6.65068e-12   1.60510e-09 DIIS
   @DF-RHF iter  12:  -304.73687230204172    3.97904e-13   5.20557e-10 DIIS
   @DF-RHF iter  13:  -304.73687230204240   -6.82121e-13   2.31156e-10 DIIS
   @DF-RHF iter  14:  -304.73687230204263   -2.27374e-13   4.62285e-11 DIIS
  Energy and wave function converged.


  ==> Post-Iterations <==

    Orbital Energies [Eh]
    ---------------------

    Doubly Occupied:                                                      

       1A    -20.567264     2A    -20.567201     3A    -11.347997  
       4A    -11.347972     5A    -11.236221     6A    -11.235651  
       7A     -1.501517     8A     -1.296809     9A     -1.066904  
      10A     -0.990115    11A     -0.810569    12A     -0.787657  
      13A     -0.749006    14A     -0.676394    15A     -0.657289  
      16A     -0.645272    17A     -0.537580    18A     -0.525211  
      19A     -0.519305    20A     -0.511597    21A     -0.508517  
      22A     -0.459975    23A     -0.431363  

    Virtual:                                                              

      24A      0.050446    25A      0.051302    26A      0.059467  
      27A      0.072112    28A      0.073467    29A      0.092419  
      30A      0.093432    31A      0.096773    32A      0.116635  
      33A      0.126407    34A      0.127463    35A      0.130111  
      36A      0.162131    37A      0.176388    38A      0.195513  
      39A      0.204215    40A      0.206626    41A      0.214139  
      42A      0.220953    43A      0.228190    44A      0.233689  
      45A      0.249492    46A      0.268186    47A      0.268909  
      48A      0.276979    49A      0.295932    50A      0.302220  
      51A      0.315559    52A      0.332125    53A      0.336063  
      54A      0.342728    55A      0.348400    56A      0.357005  
      57A      0.357168    58A      0.362765    59A      0.376041  
      60A      0.398597    61A      0.404059    62A      0.412790  
      63A      0.421486    64A      0.433712    65A      0.447044  
      66A      0.459420    67A      0.469172    68A      0.486609  
      69A      0.493125    70A      0.508562    71A      0.512601  
      72A      0.516735    73A      0.520743    74A      0.527726  
      75A      0.529247    76A      0.543535    77A      0.546063  
      78A      0.580549    79A      0.595832    80A      0.608144  
      81A      0.612106    82A      0.624832    83A      0.654857  
      84A      0.657286    85A      0.672093    86A      0.722622  
      87A      0.737408    88A      0.748530    89A      0.754184  
      90A      0.771664    91A      0.781568    92A      0.793695  
      93A      0.798292    94A      0.817419    95A      0.820083  
      96A      0.830117    97A      0.843458    98A      0.878377  
      99A      0.892160   100A      0.930733   101A      0.930893  
     102A      0.940211   103A      0.946359   104A      0.969948  
     105A      0.988468   106A      1.000180   107A      1.031656  
     108A      1.037692   109A      1.039105   110A      1.061895  
     111A      1.080482   112A      1.096363   113A      1.115908  
     114A      1.123247   115A      1.139023   116A      1.161579  
     117A      1.189198   118A      1.225318   119A      1.249073  
     120A      1.252442   121A      1.262802   122A      1.283136  
     123A      1.323025   124A      1.330795   125A      1.339067  
     126A      1.353472   127A      1.375110   128A      1.382755  
     129A      1.398440   130A      1.404121   131A      1.412773  
     132A      1.448297   133A      1.448516   134A      1.460297  
     135A      1.482080   136A      1.497918   137A      1.506633  
     138A      1.527416   139A      1.547158   140A      1.559751  
     141A      1.583251   142A      1.586031   143A      1.588847  
     144A      1.589894   145A      1.601670   146A      1.656156  
     147A      1.660690   148A      1.670549   149A      1.676498  
     150A      1.684943   151A      1.700114   152A      1.707971  
     153A      1.715660   154A      1.732108   155A      1.736674  
     156A      1.750029   157A      1.752785   158A      1.791786  
     159A      1.802690   160A      1.808720   161A      1.824106  
     162A      1.903644   163A      1.905536   164A      1.931477  
     165A      1.945301   166A      1.948899   167A      1.985340  
     168A      1.993615   169A      2.003769   170A      2.007481  
     171A      2.028277   172A      2.051169   173A      2.055060  
     174A      2.060753   175A      2.150854   176A      2.153568  
     177A      2.214114   178A      2.251759   179A      2.301685  
     180A      2.334744   181A      2.393138   182A      2.403048  
     183A      2.424074   184A      2.441719   185A      2.452531  
     186A      2.480786   187A      2.508082   188A      2.511684  
     189A      2.545117   190A      2.582155   191A      2.631999  
     192A      2.646694   193A      2.682393   194A      2.693401  
     195A      2.725287   196A      2.771105   197A      2.799455  
     198A      2.882245   199A      2.882970   200A      2.895315  
     201A      2.914434   202A      2.920923   203A      2.958400  
     204A      2.966119   205A      2.969463   206A      3.081346  
     207A      3.099712   208A      3.119380   209A      3.132133  
     210A      3.185672   211A      3.188801   212A      3.212555  
     213A      3.227479   214A      3.243538   215A      3.267071  
     216A      3.312137   217A      3.339213   218A      3.412587  
     219A      3.416147   220A      3.418022   221A      3.440097  
     222A      3.442758   223A      3.480644   224A      3.486530  
     225A      3.504046   226A      3.524263   227A      3.539288  
     228A      3.607152   229A      3.629277   230A      3.639736  
     231A      3.671315   232A      3.686004   233A      3.700562  
     234A      3.710819   235A      3.729924   236A      3.735951  
     237A      3.751787   238A      3.821058   239A      3.837410  
     240A      3.844489   241A      3.867615   242A      3.885529  
     243A      3.933564   244A      3.949692   245A      3.966167  
     246A      3.966490   247A      3.969828   248A      4.005093  
     249A      4.025620   250A      4.049934   251A      4.056434  
     252A      4.080309   253A      4.107530   254A      4.114330  
     255A      4.148399   256A      4.167864   257A      4.176334  
     258A      4.185397   259A      4.191700   260A      4.214574  
     261A      4.244632   262A      4.253101   263A      4.259874  
     264A      4.268464   265A      4.273927   266A      4.318267  
     267A      4.345892   268A      4.366841   269A      4.429919  
     270A      4.467015   271A      4.484506   272A      4.486309  
     273A      4.499878   274A      4.516349   275A      4.532159  
     276A      4.554967   277A      4.584459   278A      4.639221  
     279A      4.691148   280A      4.693758   281A      4.703688  
     282A      4.708475   283A      4.734940   284A      4.744927  
     285A      4.758535   286A      4.808835   287A      4.820867  
     288A      4.821531   289A      4.840773   290A      4.888914  
     291A      4.907552   292A      4.959225   293A      4.966389  
     294A      4.968322   295A      5.097292   296A      5.120047  
     297A      5.125315   298A      5.193891   299A      5.199983  
     300A      5.241157   301A      5.272939   302A      5.290053  
     303A      5.398184   304A      5.424653   305A      5.437075  
     306A      5.466906   307A      5.476672   308A      5.584358  
     309A      5.584369   310A      5.606473   311A      5.655274  
     312A      5.704348   313A      5.710882   314A      5.730452  
     315A      5.860907   316A      5.867321   317A      5.900546  
     318A      5.937794   319A      6.061392   320A      6.129921  
     321A      6.153201   322A      6.207400   323A      6.261934  
     324A      6.288828   325A      6.301682   326A      6.361156  
     327A      6.385418   328A      6.498267   329A      6.563448  
     330A      6.901444   331A      6.905978   332A      6.955140  
     333A      6.970945   334A      6.997714   335A      7.032926  
     336A      7.111254   337A      7.141278   338A      7.179633  
     339A      7.206945   340A      7.245628   341A      7.254673  
     342A      7.404395   343A      7.507565   344A      7.599735  
     345A      7.615133   346A      7.659974   347A      7.755706  
     348A      7.811139   349A      7.825155   350A      7.924534  
     351A      8.059684   352A      8.210649   353A      8.213605  
     354A      8.233710   355A     14.278868   356A     15.467046  
     357A     15.712697   358A     15.956025   359A     17.526547  
     360A     18.820659  

    Final Occupation by Irrep:
              A 
    DOCC [    23 ]

  @DF-RHF Final Energy:  -304.73687230204263

   => Energetics <=

    Nuclear Repulsion Energy =            258.0652966930359185
    One-Electron Energy =                -927.6495690301821924
    Two-Electron Energy =                 364.8474000351037034
    Total Energy =                       -304.7368723020426273

Computation Completed


Properties will be evaluated at   0.000000,   0.000000,   0.000000 [a0]

Properties computed using the SCF density matrix

  Nuclear Dipole Moment: [e a0]
     X:    -4.4801      Y:    -0.0003      Z:    -0.0015

  Electronic Dipole Moment: [e a0]
     X:     3.7439      Y:     0.0003      Z:     0.0018

  Dipole Moment: [e a0]
     X:    -0.7362      Y:    -0.0001      Z:     0.0002     Total:     0.7362

  Dipole Moment: [D]
     X:    -1.8713      Y:    -0.0001      Z:     0.0006     Total:     1.8713


*** tstop() called on n077 at Fri Jun  5 11:37:09 2020
Module time:
	user time   =      37.01 seconds =       0.62 minutes
	system time =       2.06 seconds =       0.03 minutes
	total time  =         11 seconds =       0.18 minutes
Total time:
	user time   =     226.15 seconds =       3.77 minutes
	system time =       8.66 seconds =       0.14 minutes
	total time  =         62 seconds =       1.03 minutes

*** tstart() called on n077
*** at Fri Jun  5 11:37:09 2020


  //>>>>>>>>>>>>>>>>>>>>>>>>>>>>>>>>>>>//
  //               DFMP2               //
  //<<<<<<<<<<<<<<<<<<<<<<<<<<<<<<<<<<<//

   => Loading Basis Set <=

    Name: (HEAVY-AUG-CC-PV(T+D)Z AUX)
    Role: RIFIT
    Keyword: DF_BASIS_MP2
    atoms 1, 4, 7, 10     entry C          line   148 file /opt/psi/4/master/share/psi4/basis/heavy-aug-cc-pvtz-ri.gbs 
    atoms 2-3, 5-6, 8, 11 entry H          line    44 file /opt/psi/4/master/share/psi4/basis/heavy-aug-cc-pvtz-ri.gbs 
    atoms 9, 12           entry O          line   264 file /opt/psi/4/master/share/psi4/basis/heavy-aug-cc-pvtz-ri.gbs 

	 --------------------------------------------------------
	                          DF-MP2                         
	      2nd-Order Density-Fitted Moller-Plesset Theory     
	              RMP2 Wavefunction,   4 Threads             
	                                                         
	        Rob Parrish, Justin Turney, Andy Simmonett,      
	           Ed Hohenstein, and C. David Sherrill          
	 --------------------------------------------------------

   => Auxiliary Basis Set <=

  Basis Set: (HEAVY-AUG-CC-PV(T+D)Z AUX)
    Blend: HEAVY-AUG-CC-PVTZ-RI
    Number of shells: 228
    Number of basis function: 816
    Number of Cartesian functions: 1026
    Spherical Harmonics?: true
    Max angular momentum: 4

	 --------------------------------------------------------
	                 NBF =   360, NAUX =   816
	 --------------------------------------------------------
	   CLASS    FOCC     OCC    AOCC    AVIR     VIR    FVIR
	   PAIRS       6      23      17     337     337       0
	 --------------------------------------------------------

	-----------------------------------------------------------
	 ==================> DF-MP2 Energies <==================== 
	-----------------------------------------------------------
	 Reference Energy          =    -304.7368723020426273 [Eh]
	 Singles Energy            =      -0.0000000000000000 [Eh]
	 Same-Spin Energy          =      -0.2850940524596575 [Eh]
	 Opposite-Spin Energy      =      -0.8617661729540443 [Eh]
	 Correlation Energy        =      -1.1468602254137019 [Eh]
	 Total Energy              =    -305.8837325274563455 [Eh]
	-----------------------------------------------------------
	 ================> DF-SCS-MP2 Energies <================== 
	-----------------------------------------------------------
	 SCS Same-Spin Scale       =       0.3333333333333333 [-]
	 SCS Opposite-Spin Scale   =       1.2000000000000000 [-]
	 SCS Same-Spin Energy      =      -0.0950313508198858 [Eh]
	 SCS Opposite-Spin Energy  =      -1.0341194075448532 [Eh]
	 SCS Correlation Energy    =      -1.1291507583647391 [Eh]
	 SCS Total Energy          =    -305.8660230604073718 [Eh]
	-----------------------------------------------------------


*** tstop() called on n077 at Fri Jun  5 11:37:10 2020
Module time:
	user time   =       6.99 seconds =       0.12 minutes
	system time =       0.09 seconds =       0.00 minutes
	total time  =          1 seconds =       0.02 minutes
Total time:
	user time   =     233.14 seconds =       3.89 minutes
	system time =       8.75 seconds =       0.15 minutes
	total time  =         63 seconds =       1.05 minutes

========================OPTAVC-XTPL==========================

MP2/TZ correlation energy -1.146860225413702

=============================================================

    Psi4 stopped on: Friday, 05 June 2020 11:37AM
    Psi4 wall time for execution: 0:01:03.52

*** Psi4 exiting successfully. Buy a developer a beer!
