
 Primary working directories    : /tmp/320938.539.gen4.q
 Secondary working directories  : /tmp/320938.539.gen4.q
 Wavefunction directory         : /home/vulcan/mel64643/wfu/
 Main file repository           : /tmp/320938.539.gen4.q/

 ARCHNAME  : Linux/x86_64
 FC        : /opt/intel/compilers_and_libraries_2016.1.150/linux/bin/intel64/ifort
 FCVERSION : 16.0.1
 BLASLIB   : -mkl
 id        : ccgc

 Nodes     nprocs
 n033         3
 Number of processes for MPI-2 version of Molpro:   nprocs(total)=    4   nprocs(compute)=    3   nprocs(helper)=    1
 ga_uses_ma=false, calling ma_init with nominal heap.
 GA-space will be limited to   8.0 MW (determined by -G option)

 Using customized tuning parameters: mindgm=10; mindgv=16; mindgc=4; mindgr=1; noblas=0; mincuda=1000; minvec=7
 default implementation of scratch files=sf  

 ***,Frequencies for min3
 memory,1000,m
 gthresh,energy=1.0d-10,orbital=1.0d-10,oneint=1.0d-16,twoint=1.0d-16,optgrad=1.0d-6,compress=1.0d-13
 geomtyp=xyz
 
  geometry = {
  12
  arbitrary comment
     C    1.776964391707    0.711398808326   -0.047331391796
     C    0.491811976407   -0.059992870174   -0.196493901896
     C    0.450332819107   -1.536294019674    0.101417522804
     O   -0.560767745493    0.727234937526    0.254892030773
     O   -1.837839505603    0.092276666785   -0.120815564472
     H    2.585339728263    0.213502412914   -0.612135508350
     H    1.660867731153    1.742097640493   -0.427794016263
     H    2.095450900074    0.773755776795    1.016757152322
     H   -0.505211907053   -1.983019959782   -0.219682279835
     H    1.281526893734   -2.047910463289   -0.416845005763
     H    0.561591063083   -1.719061725376    1.194969330721
     H   -1.987893973352    0.550603244225   -0.967535558671
  }
 
 basis=cc-pvdz
 {rhf;maxit,200}
 {uccsd(t);maxit,200}

 Variables initialized (661), CPU time= 0.00 sec
 Commands  initialized (458), CPU time= 0.01 sec, 486 directives.
 Default parameters read. Elapsed time= 0.06 sec

 Checking input...
 Passed
1


                                         ***  PROGRAM SYSTEM MOLPRO  ***
                         Copyright, University College Cardiff Consultants Limited, 2008

                                    Version 2010.1 linked May 16 2016 07:17:05


 **********************************************************************************************************************************
 LABEL *   Frequencies for min3                                                          
 Linux-4.4.3/n033(x86_64) 64 bit mpp version                                             DATE: 07-Mar-20          TIME: 04:09:05  
 **********************************************************************************************************************************

 SHA1:             9e8077add272b0f3cad6f7df79ec5211205f459d
 **********************************************************************************************************************************

 THRESHOLDS:

 ZERO    =  1.00D-12  ONEINT  =  1.00D-16  TWOINT  =  1.00D-16  PREFAC  =  1.00D-14  LOCALI  =  1.00D-09  EORDER  =  1.00D-04
 ENERGY  =  1.00D-10  ETEST   =  0.00D+00  EDENS   =  0.00D+00  THRDEDEF=  1.00D-06  GRADIENT=  1.00D-02  STEP    =  1.00D-03
 ORBITAL =  1.00D-10  CIVEC   =  1.00D-05  COEFF   =  1.00D-04  PRINTCI =  5.00D-02  PUNCHCI =  9.90D+01  OPTGRAD =  1.00D-06
 OPTENERG=  1.00D-06  OPTSTEP =  3.00D-04  THRGRAD =  1.00D-10  COMPRESS=  1.00D-13  VARMIN  =  1.00D-07  VARMAX  =  1.00D-03
 THRDOUB =  0.00D+00  THRDIV  =  1.00D-05  THRRED  =  1.00D-07  THRPSP  =  1.00D+00  THRDC   =  1.00D-10  THRCS   =  1.00D-10
 THRNRM  =  1.00D-08  THREQ   =  0.00D+00  THRDE   =  1.00D+00  THRREF  =  1.00D-05  SPARFAC =  1.00D+00  THRDLP  =  1.00D-07
 THRDIA  =  1.00D-10  THRDLS  =  1.00D-07  THRGPS  =  0.00D+00  THRKEX  =  0.00D+00  THRDIS  =  2.00D-01  THRVAR  =  1.00D-10
 THRLOC  =  1.00D-06  THRGAP  =  1.00D-06  THRLOCT = -1.00D+00  THRGAPT = -1.00D+00  THRORB  =  1.00D-06  THRMLTP =  0.00D+00
 THRCPQCI=  1.00D-10  KEXTA   =  0.00D+00  THRCOARS=  0.00D+00  SYMTOL  =  1.00D-06  GRADTOL =  1.00D-06  THROVL  =  1.00D-08
 THRORTH =  1.00D-08  GRID    =  1.00D-06  GRIDMAX =  1.00D-03  DTMAX   =  0.00D+00

 SETTING GEOMTYP        =    XYZ

 Variable memory set to 1000000000 words,  buffer space   230000 words

 SETTING BASIS          =    CC-PVDZ


 Recomputing integrals since basis changed


 Using spherical harmonics

 Library entry C      S cc-pVDZ              selected for orbital group  1
 Library entry C      P cc-pVDZ              selected for orbital group  1
 Library entry C      D cc-pVDZ              selected for orbital group  1
 Library entry O      S cc-pVDZ              selected for orbital group  2
 Library entry O      P cc-pVDZ              selected for orbital group  2
 Library entry O      D cc-pVDZ              selected for orbital group  2
 Library entry H      S cc-pVDZ              selected for orbital group  3
 Library entry H      P cc-pVDZ              selected for orbital group  3

1PROGRAM * SEWARD (Integral evaluation for generally contracted gaussian basis sets)     Author: Roland Lindh, 1990

 Geometry written to block  1 of record 700


 Point group  C1  



 ATOMIC COORDINATES

 NR  ATOM    CHARGE       X              Y              Z

   1  C       6.00    3.357976046    1.344348918   -0.089443368
   2  C       6.00    0.929389944   -0.113370094   -0.371319661
   3  C       6.00    0.851005696   -2.903174955    0.191651343
   4  O       8.00   -1.059697462    1.374274865    0.481676131
   5  O       8.00   -3.473013339    0.174377629   -0.228308329
   6  H       1.00    4.885584043    0.403461089   -1.156768466
   7  H       1.00    3.138585152    3.292087435   -0.808413531
   8  H       1.00    3.959828323    1.462186511    1.921392560
   9  H       1.00   -0.954712143   -3.747364637   -0.415139345
  10  H       1.00    2.421734859   -3.869989917   -0.787722900
  11  H       1.00    1.061253307   -3.248555864    2.258164771
  12  H       1.00   -3.756575188    1.040489339   -1.828377228

 Bond lengths in Bohr (Angstrom)

 1-2  2.846476668  1-6  2.087591667  1-7  2.087758556  1-8  2.102278048  2-3  2.847119878
     ( 1.506290578)     ( 1.104705932)     ( 1.104794246)     ( 1.112477630)     ( 1.506630951)

  2- 4  2.626244097   3- 9  2.083618984   3-10  2.088323534   3-11  2.105699356   4- 5  2.787099717
       ( 1.389748521)       ( 1.102603679)       ( 1.105093219)       ( 1.114288108)       ( 1.474869650)

  5-12  1.841406337
       ( 0.974430266)

 Bond angles

  1-2-3  120.37866573   1-2-4  108.90165229   2-1-6  110.05279115   2-1-7  110.73267961

  2- 1- 8  111.57263491   2- 3- 9  111.30143827   2- 3-10  109.88922034   2- 3-11  110.61121991

  2- 4- 5  109.22062127   3- 2- 4  118.03269214   4- 5-12   98.75427253   6- 1- 7  108.74186684

  6- 1- 8  107.74637950   7- 1- 8  107.88973730   9- 3-10  109.12828532   9- 3-11  107.81085493

 10- 3-11  108.01182242

 NUCLEAR CHARGE:                   41
 NUMBER OF PRIMITIVE AOS:         184
 NUMBER OF SYMMETRY AOS:          179
 NUMBER OF CONTRACTIONS:          105   ( 105A   )
 NUMBER OF CORE ORBITALS:           5   (   5A   )
 NUMBER OF VALENCE ORBITALS:       27   (  27A   )


 NUCLEAR REPULSION ENERGY  183.21926308


 Eigenvalues of metric

         1 0.345E-02 0.435E-02 0.105E-01 0.141E-01 0.182E-01 0.214E-01 0.331E-01 0.345E-01


 Contracted 2-electron integrals neglected if value below      1.0D-16
 AO integral compression algorithm  1   Integral accuracy      1.0D-16

     127.664 MB (compressed) written to integral file ( 93.2%)

     Node minimum: 41.681 MB, node maximum: 44.040 MB


 NUMBER OF SORTED TWO-ELECTRON INTEGRALS:    5164320.     BUFFER LENGTH:  32768
 NUMBER OF SEGMENTS:   1  SEGMENT LENGTH:    5164320      RECORD LENGTH: 524288

 Memory used in sort:       5.72 MW

 SORT1 READ    17075251. AND WROTE     5135924. INTEGRALS IN     15 RECORDS. CPU TIME:     0.23 SEC, REAL TIME:     0.27 SEC
 SORT2 READ    15396684. AND WROTE    15487395. INTEGRALS IN    477 RECORDS. CPU TIME:     0.08 SEC, REAL TIME:     0.12 SEC

 Node minimum:     5160610.  Node maximum:     5164320. integrals

 OPERATOR DM      FOR CENTER  0  COORDINATES:    0.000000    0.000000    0.000000


 **********************************************************************************************************************************
 DATASETS  * FILE   NREC   LENGTH (MB)   RECORD NAMES
              1      18        3.17       500      610      700      900      950      970     1000      129      960     1100   
                                          VAR    BASINP    GEOM    SYMINP    ZMAT    AOBASIS   BASIS     P2S    ABASIS      S 
                                         1400     1410     1200     1210     1080     1600     1650     1700   
                                           T        V       H0       H01     AOSYM     SMH    MOLCAS    OPER   

 PROGRAMS   *        TOTAL       INT
 CPU TIMES  *         1.27      1.21
 REAL TIME  *         1.57 SEC
 DISK USED  *       305.44 MB      
 GA USED    *         0.00 MB       (max)       0.00 MB       (current)
 **********************************************************************************************************************************

1PROGRAM * RHF-SCF (OPEN SHELL)       Authors: W. Meyer, H.-J. Werner


 NUMBER OF ELECTRONS:      21+   20-    SPACE SYMMETRY=1    SPIN SYMMETRY: Doublet 
 CONVERGENCE THRESHOLDS:    1.00E-10 (Density)    1.00E-11 (Energy)
 MAX. NUMBER OF ITERATIONS:      200
 INTERPOLATION TYPE:            DIIS
 INTERPOLATION STEPS:              2 (START)      1 (STEP)
 LEVEL SHIFTS:                 -0.30 (CLOSED)  0.00 (OPEN) 



 Orbital guess generated from atomic densities. Full valence occupancy:   32

 Molecular orbital dump at record        2100.2

 ITERATION    DDIFF          GRAD             ENERGY        2-EL.EN.            DIPOLE MOMENTS         DIIS
    1      0.000D+00      0.000D+00      -267.17821904    555.813276    0.57139    0.04909   -0.75033    0
    2      0.000D+00      0.617D-02      -267.24892164    555.733316    0.41508   -0.13126   -0.59929    1
    3      0.928D-02      0.214D-02      -267.26110609    555.651691    0.39488   -0.05928   -0.62667    2
    4      0.336D-02      0.912D-03      -267.26471866    555.803759    0.38021   -0.09941   -0.64304    3
    5      0.186D-02      0.364D-03      -267.26528860    555.775109    0.38275   -0.09292   -0.63599    4
    6      0.793D-03      0.110D-03      -267.26536523    555.761368    0.38101   -0.09273   -0.63873    5
    7      0.277D-03      0.512D-04      -267.26538543    555.758344    0.38029   -0.09247   -0.63822    6
    8      0.144D-03      0.273D-04      -267.26539151    555.756403    0.38057   -0.09259   -0.63844    7
    9      0.926D-04      0.115D-04      -267.26539243    555.756713    0.38075   -0.09255   -0.63820    8
   10      0.366D-04      0.502D-05      -267.26539259    555.757328    0.38101   -0.09256   -0.63826    9
   11      0.147D-04      0.197D-05      -267.26539262    555.757169    0.38106   -0.09256   -0.63827    9
   12      0.652D-05      0.672D-06      -267.26539262    555.757303    0.38108   -0.09256   -0.63826    9
   13      0.228D-05      0.227D-06      -267.26539262    555.757219    0.38108   -0.09256   -0.63826    9
   14      0.633D-06      0.758D-07      -267.26539262    555.757228    0.38108   -0.09256   -0.63826    9
   15      0.193D-06      0.300D-07      -267.26539262    555.757224    0.38108   -0.09256   -0.63826    9
   16      0.824D-07      0.145D-07      -267.26539262    555.757225    0.38108   -0.09256   -0.63826    9
   17      0.374D-07      0.749D-08      -267.26539262    555.757225    0.38109   -0.09256   -0.63826    9
   18      0.222D-07      0.342D-08      -267.26539262    555.757225    0.38109   -0.09256   -0.63826    9
   19      0.114D-07      0.133D-08      -267.26539262    555.757225    0.38108   -0.09256   -0.63826    9
   20      0.445D-08      0.568D-09      -267.26539262    555.757225    0.38108   -0.09256   -0.63826    9
   21      0.166D-08      0.287D-09      -267.26539262    555.757225    0.38108   -0.09256   -0.63826    9
   22      0.754D-09      0.162D-09      -267.26539262    555.757225    0.38108   -0.09256   -0.63826    9
   23      0.446D-09      0.797D-10      -267.26539262    555.757225    0.38108   -0.09256   -0.63826    9
   24      0.264D-09      0.317D-10      -267.26539262    555.757225    0.38108   -0.09256   -0.63826    9
   25      0.935D-10      0.129D-10      -267.26539262    555.757225    0.38108   -0.09256   -0.63826    0

 Final alpha occupancy:  21
 Final beta  occupancy:  20

 !RHF STATE 1.1 Energy               -267.265392622335
 Nuclear energy                       183.21926308
 One-electron energy                 -728.36326838
 Two-electron energy                  277.87861267
 Virial quotient                       -1.00155176
 !RHF STATE 1.1 Dipole moment           0.38108490    -0.09255777    -0.63826029
 Dipole moment /Debye                   0.96855775    -0.23524299    -1.62218960

 Orbital energies:

         1.1          2.1          3.1          4.1          5.1          6.1          7.1          8.1          9.1         10.1
    -20.630497   -20.628799   -11.279302   -11.237698   -11.232219    -1.470046    -1.240696    -1.023244    -0.945424    -0.768505

        11.1         12.1         13.1         14.1         15.1         16.1         17.1         18.1         19.1         20.1
     -0.704523    -0.642991    -0.626683    -0.588915    -0.545047    -0.543346    -0.539166    -0.516929    -0.493020    -0.469779

        21.1         22.1         23.1
     -0.352384     0.181282     0.183536


 **********************************************************************************************************************************
 DATASETS  * FILE   NREC   LENGTH (MB)   RECORD NAMES
              1      18        3.17       500      610      700      900      950      970     1000      129      960     1100   
                                          VAR    BASINP    GEOM    SYMINP    ZMAT    AOBASIS   BASIS     P2S    ABASIS      S 
                                         1400     1410     1200     1210     1080     1600     1650     1700   
                                           T        V       H0       H01     AOSYM     SMH    MOLCAS    OPER   

              2       3        0.77       700     1000     2100   
                                         GEOM     BASIS     RHF  

 PROGRAMS   *        TOTAL       RHF       INT
 CPU TIMES  *         2.76      1.49      1.21
 REAL TIME  *         3.24 SEC
 DISK USED  *       322.00 MB      
 SF USED    *         0.04 MB      
 GA USED    *         0.00 MB       (max)       0.00 MB       (current)
 **********************************************************************************************************************************


1PROGRAM * CCSD (Unrestricted open-shell coupled cluster)     Authors: C. Hampel, H.-J. Werner, 1991, M. Deegan, P.J. Knowles, 1992


 Convergence thresholds:  THRVAR = 1.00D-08  THRDEN = 1.00D-10

 CCSD(T)     terms to be evaluated (factor= 1.000)


 Number of core orbitals:           5 (   5 )
 Number of closed-shell orbitals:  15 (  15 )
 Number of active  orbitals:        1 (   1 )
 Number of external orbitals:      84 (  84 )

 Memory could be reduced to 24.91 Mwords without degradation in triples

 Number of N-1 electron functions:              31
 Number of N-2 electron functions:             465
 Number of singly external CSFs:              2635
 Number of doubly external CSFs:           2537250
 Total number of CSFs:                     2539885

 Molecular orbitals read from record     2100.2  Type=RHF/CANONICAL (state 1.1)

 Integral transformation finished. Total CPU:   1.59 sec, npass=  1  Memory used:  12.63 MW

 Starting RMP2 calculation

 ITER.      SQ.NORM     CORR.ENERGY   TOTAL ENERGY   ENERGY CHANGE        DEN1      VAR(S)    VAR(P)  DIIS     TIME
   1      1.24302879    -0.78637516  -268.05176778    -0.78637516    -0.00304976  0.20D-04  0.11D-02  1  1     2.08
   2      1.24567019    -0.78966412  -268.05505674    -0.00328896    -0.00000474  0.54D-06  0.19D-05  2  2     2.50
   3      1.24573574    -0.78970619  -268.05509881    -0.00004206    -0.00000003  0.16D-07  0.68D-08  3  3     2.95
   4      1.24573669    -0.78970619  -268.05509881    -0.00000000    -0.00000000  0.27D-09  0.38D-10  4  4     3.43
   5      1.24573677    -0.78970622  -268.05509884    -0.00000003    -0.00000000  0.25D-11  0.65D-12  5  5     3.95
   6      1.24573679    -0.78970623  -268.05509885    -0.00000001    -0.00000000  0.28D-13  0.86D-14  6  6     4.49
   7      1.24573679    -0.78970623  -268.05509885     0.00000000    -0.00000000  0.47D-15  0.12D-15  6  1     5.04
   8      1.24573679    -0.78970623  -268.05509885     0.00000000    -0.00000000  0.59D-17  0.13D-17  6  2     5.59

 Norm of t1 vector:      0.03892550      S-energy:    -0.00227098      T1 diagnostic:  0.00055017
 Norm of t2 vector:      0.49418781      P-energy:    -0.78743525
                                         Alpha-Beta:  -0.59341570
                                         Alpha-Alpha: -0.10094118
                                         Beta-Beta:   -0.09307836

 Spin contamination <S**2-Sz**2-Sz>     0.00104012
  Reference energy                   -267.265392622335
  RHF-RMP2 correlation energy          -0.789706225567
 !RHF-RMP2 energy                    -268.055098847901

 Starting UCCSD calculation

 ITER.      SQ.NORM     CORR.ENERGY   TOTAL ENERGY   ENERGY CHANGE        DEN1      VAR(S)    VAR(P)  DIIS     TIME
   1      1.26279865    -0.80904349  -268.07443611    -0.80904349    -0.02515727  0.38D-02  0.59D-02  1  1    15.51
   2      1.29157374    -0.83645330  -268.10184592    -0.02740981    -0.00201148  0.22D-03  0.66D-03  2  2    25.24
   3      1.30151644    -0.84095170  -268.10634432    -0.00449840    -0.00032474  0.19D-03  0.56D-04  3  3    34.84
   4      1.30643176    -0.84242921  -268.10782183    -0.00147751    -0.00007213  0.43D-04  0.14D-04  4  4    44.47
   5      1.30916347    -0.84281751  -268.10821013    -0.00038830    -0.00002369  0.19D-04  0.32D-05  5  5    54.34
   6      1.31110474    -0.84302217  -268.10841479    -0.00020466    -0.00000647  0.42D-05  0.12D-05  6  6    64.30
   7      1.31205539    -0.84308101  -268.10847363    -0.00005884    -0.00000208  0.14D-05  0.37D-06  6  2    72.20
   8      1.31249777    -0.84312374  -268.10851637    -0.00004274    -0.00000065  0.45D-06  0.11D-06  6  1    79.03
   9      1.31268324    -0.84312833  -268.10852095    -0.00000459    -0.00000022  0.15D-06  0.35D-07  6  4    85.88
  10      1.31274647    -0.84313126  -268.10852388    -0.00000293    -0.00000005  0.35D-07  0.95D-08  6  3    93.87
  11      1.31277602    -0.84313000  -268.10852263     0.00000126    -0.00000002  0.13D-07  0.28D-08  6  5   102.12
  12      1.31278643    -0.84312975  -268.10852237     0.00000026    -0.00000000  0.26D-08  0.96D-09  6  6   110.37
  13      1.31278529    -0.84312883  -268.10852146     0.00000091    -0.00000000  0.96D-09  0.29D-09  6  2   118.62
  14      1.31278009    -0.84312799  -268.10852061     0.00000084    -0.00000000  0.21D-09  0.68D-10  6  1   126.87
  15      1.31277601    -0.84312740  -268.10852003     0.00000059    -0.00000000  0.78D-10  0.19D-10  6  4   135.09
  16      1.31277282    -0.84312702  -268.10851964     0.00000038    -0.00000000  0.28D-10  0.63D-11  6  3   143.32
  17      1.31277061    -0.84312678  -268.10851940     0.00000024    -0.00000000  0.10D-10  0.24D-11  6  5   151.56
  18      1.31276971    -0.84312672  -268.10851934     0.00000006    -0.00000000  0.41D-11  0.87D-12  6  6   159.82
  19      1.31276910    -0.84312669  -268.10851931     0.00000003    -0.00000000  0.16D-11  0.37D-12  6  2   168.06
  20      1.31276878    -0.84312667  -268.10851930     0.00000001    -0.00000000  0.60D-12  0.13D-12  6  1   176.28
  21      1.31276861    -0.84312666  -268.10851929     0.00000001    -0.00000000  0.28D-12  0.58D-13  6  4   184.51
  22      1.31276849    -0.84312665  -268.10851928     0.00000001    -0.00000000  0.74D-13  0.21D-13  6  3   192.76
  23      1.31276843    -0.84312665  -268.10851927     0.00000000    -0.00000000  0.22D-13  0.63D-14  6  5   201.01
  24      1.31276843    -0.84312665  -268.10851928    -0.00000000    -0.00000000  0.68D-14  0.23D-14  6  6   209.24
  25      1.31276843    -0.84312665  -268.10851928    -0.00000000    -0.00000000  0.21D-14  0.53D-15  6  2   218.07
  26      1.31276844    -0.84312665  -268.10851928    -0.00000000    -0.00000000  0.77D-15  0.15D-15  6  1   227.84
  27      1.31276845    -0.84312666  -268.10851928    -0.00000000    -0.00000000  0.20D-15  0.63D-16  6  3   237.75
  28      1.31276845    -0.84312666  -268.10851928    -0.00000000    -0.00000000  0.30D-16  0.11D-16  6  4   247.54
  29      1.31276845    -0.84312666  -268.10851928    -0.00000000    -0.00000000  0.71D-17  0.30D-17  6  5   257.40
  30      1.31276845    -0.84312666  -268.10851928    -0.00000000    -0.00000000  0.15D-17  0.54D-18  6  6   267.24
  31      1.31276846    -0.84312666  -268.10851928    -0.00000000    -0.00000000  0.36D-18  0.11D-18  6  2   277.01

 Norm of t1 vector:      0.13873856      S-energy:    -0.00282063      T1 diagnostic:  0.01617213
                                                                       D1 diagnostic:  0.06282663
 Norm of t2 vector:      0.54177492      P-energy:    -0.84030603
                                         Alpha-Beta:  -0.66486316
                                         Alpha-Alpha: -0.09147390
                                         Beta-Beta:   -0.08396897

 Spin contamination <S**2-Sz**2-Sz>     0.00217354

 Memory could be reduced to 28.85 Mwords without degradation in triples
 

 RESULTS
 =======

  Reference energy                   -267.265392622335
  UCCSD singles energy                 -0.002820627246
  UCCSD pair energy                    -0.840306028826
  UCCSD correlation energy             -0.843126656072
  Triples (T) contribution             -0.024976992223
  Total correlation energy             -0.868103648294
 
  RHF-UCCSD energy                   -268.108519278406
  RHF-UCCSD[T] energy                -268.134832543093
  RHF-UCCSD-T energy                 -268.133074711132
 !RHF-UCCSD(T) energy                -268.133496270629

 Program statistics:

 Available memory in ccsd:               999997692
 Min. memory needed in ccsd:               7337057
 Max. memory used in ccsd:                10523002
 Max. memory used in cckext:              10867977 (31 integral passes)
 Max. memory used in cckint:              12633073 ( 1 integral passes)



 **********************************************************************************************************************************
 DATASETS  * FILE   NREC   LENGTH (MB)   RECORD NAMES
              1      18        3.17       500      610      700      900      950      970     1000      129      960     1100   
                                          VAR    BASINP    GEOM    SYMINP    ZMAT    AOBASIS   BASIS     P2S    ABASIS      S 
                                         1400     1410     1200     1210     1080     1600     1650     1700   
                                           T        V       H0       H01     AOSYM     SMH    MOLCAS    OPER   

              2       3        0.77       700     1000     2100   
                                         GEOM     BASIS     RHF  

 PROGRAMS   *        TOTAL  UCCSD(T)       RHF       INT
 CPU TIMES  *       358.50    355.73      1.49      1.21
 REAL TIME  *       371.50 SEC
 DISK USED  *         1.29 GB      
 SF USED    *       553.73 MB      
 GA USED    *         0.00 MB       (max)       0.00 MB       (current)
 **********************************************************************************************************************************

        UCCSD(T)        RHF-SCF 
   -268.13349627   -267.26539262
 **********************************************************************************************************************************
 Variable memory released
