
    -----------------------------------------------------------------------
          Psi4: An Open-Source Ab Initio Electronic Structure Package
                               Psi4 1.4a2.dev478 

                         Git: Rev {master} f722895 dirty


    R. M. Parrish, L. A. Burns, D. G. A. Smith, A. C. Simmonett,
    A. E. DePrince III, E. G. Hohenstein, U. Bozkaya, A. Yu. Sokolov,
    R. Di Remigio, R. M. Richard, J. F. Gonthier, A. M. James,
    H. R. McAlexander, A. Kumar, M. Saitow, X. Wang, B. P. Pritchard,
    P. Verma, H. F. Schaefer III, K. Patkowski, R. A. King, E. F. Valeev,
    F. A. Evangelista, J. M. Turney, T. D. Crawford, and C. D. Sherrill,
    J. Chem. Theory Comput. 13(7) pp 3185--3197 (2017).
    (doi: 10.1021/acs.jctc.7b00174)


                         Additional Contributions by
    P. Kraus, H. Kruse, M. H. Lechner, M. C. Schieber, R. A. Shaw,
    A. Alenaizan, R. Galvelis, Z. L. Glick, S. Lehtola, and J. P. Misiewicz

    -----------------------------------------------------------------------


    Psi4 started on: Monday, 08 June 2020 02:59PM

    Process ID: 27485
    Host:       n061
    PSIDATADIR: /opt/psi/4/master/share/psi4
    Memory:     500.0 MiB
    Threads:    4
    
  ==> Input File <==

--------------------------------------------------------------------------
set memory 40Gb

molecule {
    C   -1.174143750690   -0.774963495581   -0.000122054786
    H   -1.619161817890   -1.211058947381   -0.891063737386
    H   -1.619236641990   -1.211251475481    0.890686519114
    C   -1.174259935390    0.774782497019    0.000039298714
    H   -1.619408715490    1.210812725519    0.890946481514
    H   -1.619363714790    1.208590592762   -0.890761601681
    C    0.353007271405    0.922364905199    0.000130072237
    H    0.839103074604    1.892383459806    0.000274629423
    O    0.767402866877    0.000206026724   -1.027348754139
    C    0.352816458711   -0.922138785736   -0.000107652903
    H    0.838717101345   -1.892254269734   -0.000221963155
    O    0.767326504530   -0.000064844290    1.027402821696
}

set {
    e_convergence 10
    d_convergence 10
    freeze_core True
    basis_guess True
    cc_type conv
    maxiter 300
}

E = energy('mp2/heavy-aug-cc-pV(Q+d)Z')
psi4.print_out("\n========================OPTAVC-XTPL==========================\n\n")
psi4.print_out("MP2/QZ correlation energy {}\n".format(variable("MP2 CORRELATION ENERGY")))
psi4.print_out("SCF/QZ reference energy {}\n".format(variable("CURRENT REFERENCE ENERGY")))
psi4.print_out("\n\n=============================================================\n")

E = energy('mp2/heavy-aug-cc-pV(T+d)Z')
psi4.print_out("\n========================OPTAVC-XTPL==========================\n\n")
psi4.print_out("MP2/TZ correlation energy {}".format(variable("MP2 CORRELATION ENERGY")))
psi4.print_out("\n\n=============================================================\n")
--------------------------------------------------------------------------

Scratch directory: /tmp/

Scratch directory: /tmp/
    SCF Algorithm Type (re)set to DF.

*** tstart() called on n061
*** at Mon Jun  8 14:59:20 2020


  //>>>>>>>>>>>>>>>>>>>>>>>>>>>>>>>>>>>//
  //      Guess SCF, pcseg-0 Basis     //
  //<<<<<<<<<<<<<<<<<<<<<<<<<<<<<<<<<<<//

   => Loading Basis Set <=

    Name: PCSEG-0
    Role: ORBITAL
    Keyword: BASIS
    atoms 1, 4, 7, 10     entry C          line    71 file /opt/psi/4/master/share/psi4/basis/pcseg-0.gbs 
    atoms 2-3, 5-6, 8, 11 entry H          line    13 file /opt/psi/4/master/share/psi4/basis/pcseg-0.gbs 
    atoms 9, 12           entry O          line   103 file /opt/psi/4/master/share/psi4/basis/pcseg-0.gbs 


         ---------------------------------------------------------
                           SCF Castup computation                  
         ---------------------------------------------------------
                                   SCF
               by Justin Turney, Rob Parrish, Andy Simmonett
                          and Daniel G. A. Smith
                              RHF Reference
                        4 Threads,    500 MiB Core
         ---------------------------------------------------------

  ==> Geometry <==

    Molecular point group: c1
    Full point group: C1

    Geometry (in Angstrom), charge = 0, multiplicity = 1:

       Center              X                  Y                   Z               Mass       
    ------------   -----------------  -----------------  -----------------  -----------------
         C           -1.174143750690    -0.774963495581    -0.000122054786    12.000000000000
         H           -1.619161817890    -1.211058947381    -0.891063737386     1.007825032230
         H           -1.619236641990    -1.211251475481     0.890686519114     1.007825032230
         C           -1.174259935390     0.774782497019     0.000039298714    12.000000000000
         H           -1.619408715490     1.210812725519     0.890946481514     1.007825032230
         H           -1.619363714790     1.208590592762    -0.890761601681     1.007825032230
         C            0.353007271405     0.922364905199     0.000130072237    12.000000000000
         H            0.839103074604     1.892383459806     0.000274629423     1.007825032230
         O            0.767402866877     0.000206026724    -1.027348754139    15.994914619570
         C            0.352816458711    -0.922138785736    -0.000107652903    12.000000000000
         H            0.838717101345    -1.892254269734    -0.000221963155     1.007825032230
         O            0.767326504530    -0.000064844290     1.027402821696    15.994914619570

  Running in c1 symmetry.

  Rotational constants: A =      0.19853  B =      0.16230  C =      0.14678 [cm^-1]
  Rotational constants: A =   5951.77448  B =   4865.49291  C =   4400.22529 [MHz]
  Nuclear repulsion =  257.015099260086231

  Charge       = 0
  Multiplicity = 1
  Electrons    = 46
  Nalpha       = 23
  Nbeta        = 23

  ==> Algorithm <==

  SCF Algorithm Type is DF.
  DIIS enabled.
  MOM disabled.
  Fractional occupation disabled.
  Guess Type is SAD.
  Energy threshold   = 1.00e-10
  Density threshold  = 1.00e-10
  Integral threshold = 0.00e+00

  ==> Primary Basis <==

  Basis Set: PCSEG-0
    Blend: PCSEG-0
    Number of shells: 42
    Number of basis function: 66
    Number of Cartesian functions: 66
    Spherical Harmonics?: true
    Max angular momentum: 1

   => Loading Basis Set <=

    Name: (PCSEG-0 AUX)
    Role: JKFIT
    Keyword: DF_BASIS_SCF
    atoms 1, 4, 7, 10     entry C          line   198 file /opt/psi/4/master/share/psi4/basis/def2-universal-jkfit.gbs 
    atoms 2-3, 5-6, 8, 11 entry H          line    18 file /opt/psi/4/master/share/psi4/basis/def2-universal-jkfit.gbs 
    atoms 9, 12           entry O          line   318 file /opt/psi/4/master/share/psi4/basis/def2-universal-jkfit.gbs 

  ==> Integral Setup <==

  ==> DiskDFJK: Density-Fitted J/K Matrices <==

    J tasked:                  Yes
    K tasked:                  Yes
    wK tasked:                  No
    OpenMP threads:              4
    Integrals threads:           4
    Memory [MiB]:              375
    Algorithm:                Core
    Integral Cache:           NONE
    Schwarz Cutoff:          1E-12
    Fitting Condition:       1E-10

   => Auxiliary Basis Set <=

  Basis Set: (PCSEG-0 AUX)
    Blend: DEF2-UNIVERSAL-JKFIT
    Number of shells: 186
    Number of basis function: 562
    Number of Cartesian functions: 662
    Spherical Harmonics?: true
    Max angular momentum: 4

  Minimum eigenvalue in the overlap matrix is 1.2846045444E-03.
  Reciprocal condition number of the overlap matrix is 2.1215551964E-04.
    Using symmetric orthogonalization.

  ==> Pre-Iterations <==

  SCF Guess: Superposition of Atomic Densities via on-the-fly atomic UHF (no occupation information).

   -------------------------
    Irrep   Nso     Nmo    
   -------------------------
     A         66      66 
   -------------------------
    Total      66      66
   -------------------------

  ==> Iterations <==

                           Total Energy        Delta E     RMS |[F,P]|

   @DF-RHF iter SAD:  -303.69655228224917   -3.03697e+02   0.00000e+00 
   @DF-RHF iter   1:  -303.56575966183595    1.30793e-01   7.24047e-03 DIIS
   @DF-RHF iter   2:  -303.66480829665159   -9.90486e-02   3.96871e-03 DIIS
   @DF-RHF iter   3:  -303.69042028879005   -2.56120e-02   6.19852e-04 DIIS
   @DF-RHF iter   4:  -303.69160527460531   -1.18499e-03   1.96455e-04 DIIS
   @DF-RHF iter   5:  -303.69170103548356   -9.57609e-05   4.10573e-05 DIIS
   @DF-RHF iter   6:  -303.69170862863501   -7.59315e-06   8.37965e-06 DIIS
   @DF-RHF iter   7:  -303.69170903163717   -4.03002e-07   1.68664e-06 DIIS
   @DF-RHF iter   8:  -303.69170904573559   -1.40984e-08   5.41852e-07 DIIS
   @DF-RHF iter   9:  -303.69170904715105   -1.41546e-09   1.09347e-07 DIIS
   @DF-RHF iter  10:  -303.69170904722750   -7.64544e-11   1.85727e-08 DIIS
   @DF-RHF iter  11:  -303.69170904722955   -2.04636e-12   2.78617e-09 DIIS
   @DF-RHF iter  12:  -303.69170904722989   -3.41061e-13   7.60310e-10 DIIS
   @DF-RHF iter  13:  -303.69170904723006   -1.70530e-13   2.88304e-10 DIIS
   @DF-RHF iter  14:  -303.69170904722978    2.84217e-13   5.70047e-11 DIIS
  Energy and wave function converged.


  ==> Post-Iterations <==

    Orbital Energies [Eh]
    ---------------------

    Doubly Occupied:                                                      

       1A    -20.584525     2A    -20.584462     3A    -11.369630  
       4A    -11.369592     5A    -11.256080     6A    -11.255678  
       7A     -1.537543     8A     -1.312964     9A     -1.091838  
      10A     -1.008918    11A     -0.821925    12A     -0.790212  
      13A     -0.768277    14A     -0.680687    15A     -0.663094  
      16A     -0.658503    17A     -0.552319    18A     -0.534389  
      19A     -0.527397    20A     -0.524519    21A     -0.519598  
      22A     -0.467026    23A     -0.443255  

    Virtual:                                                              

      24A      0.203095    25A      0.231211    26A      0.236159  
      27A      0.242147    28A      0.253165    29A      0.267408  
      30A      0.314439    31A      0.350189    32A      0.350983  
      33A      0.382108    34A      0.406843    35A      0.464621  
      36A      0.570258    37A      0.796373    38A      0.807928  
      39A      0.821082    40A      0.925680    41A      0.932767  
      42A      0.947028    43A      0.950055    44A      1.003538  
      45A      1.005123    46A      1.030113    47A      1.060628  
      48A      1.072101    49A      1.134070    50A      1.148827  
      51A      1.170483    52A      1.174285    53A      1.210926  
      54A      1.238020    55A      1.424432    56A      1.455027  
      57A      1.482482    58A      1.521996    59A      1.691239  
      60A      1.705483    61A      1.927990    62A      1.950909  
      63A      2.140094    64A      2.299090    65A      2.375002  
      66A      2.441154  

    Final Occupation by Irrep:
              A 
    DOCC [    23 ]

  @DF-RHF Final Energy:  -303.69170904722978

   => Energetics <=

    Nuclear Repulsion Energy =            257.0150992600862310
    One-Electron Energy =                -922.7687538452880744
    Two-Electron Energy =                 362.0619455379720648
    Total Energy =                       -303.6917090472297787

Computation Completed

  //>>>>>>>>>>>>>>>>>>>>>>>>>>>>>>>>>>>//
  //                SCF                //
  //<<<<<<<<<<<<<<<<<<<<<<<<<<<<<<<<<<<//

   => Loading Basis Set <=

    Name: HEAVY-AUG-CC-PV(Q+D)Z
    Role: ORBITAL
    Keyword: BASIS
    atoms 1, 4, 7, 10     entry C          line   333 file /opt/psi/4/master/share/psi4/basis/heavy-aug-cc-pv_qpd_z.gbs 
    atoms 2-3, 5-6, 8, 11 entry H          line    86 file /opt/psi/4/master/share/psi4/basis/heavy-aug-cc-pv_qpd_z.gbs 
    atoms 9, 12           entry O          line   453 file /opt/psi/4/master/share/psi4/basis/heavy-aug-cc-pv_qpd_z.gbs 


         ---------------------------------------------------------
                                   SCF
               by Justin Turney, Rob Parrish, Andy Simmonett
                          and Daniel G. A. Smith
                              RHF Reference
                        4 Threads,    500 MiB Core
         ---------------------------------------------------------

  ==> Geometry <==

    Molecular point group: c1
    Full point group: C1

    Geometry (in Angstrom), charge = 0, multiplicity = 1:

       Center              X                  Y                   Z               Mass       
    ------------   -----------------  -----------------  -----------------  -----------------
         C           -1.174143750690    -0.774963495581    -0.000122054786    12.000000000000
         H           -1.619161817890    -1.211058947381    -0.891063737386     1.007825032230
         H           -1.619236641990    -1.211251475481     0.890686519114     1.007825032230
         C           -1.174259935390     0.774782497019     0.000039298714    12.000000000000
         H           -1.619408715490     1.210812725519     0.890946481514     1.007825032230
         H           -1.619363714790     1.208590592762    -0.890761601681     1.007825032230
         C            0.353007271405     0.922364905199     0.000130072237    12.000000000000
         H            0.839103074604     1.892383459806     0.000274629423     1.007825032230
         O            0.767402866877     0.000206026724    -1.027348754139    15.994914619570
         C            0.352816458711    -0.922138785736    -0.000107652903    12.000000000000
         H            0.838717101345    -1.892254269734    -0.000221963155     1.007825032230
         O            0.767326504530    -0.000064844290     1.027402821696    15.994914619570

  Running in c1 symmetry.

  Rotational constants: A =      0.19853  B =      0.16230  C =      0.14678 [cm^-1]
  Rotational constants: A =   5951.77448  B =   4865.49291  C =   4400.22529 [MHz]
  Nuclear repulsion =  257.015099260086231

  Charge       = 0
  Multiplicity = 1
  Electrons    = 46
  Nalpha       = 23
  Nbeta        = 23

  ==> Algorithm <==

  SCF Algorithm Type is DF.
  DIIS enabled.
  MOM disabled.
  Fractional occupation disabled.
  Guess Type is SAD.
  Energy threshold   = 1.00e-10
  Density threshold  = 1.00e-10
  Integral threshold = 0.00e+00

  ==> Primary Basis <==

  Basis Set: HEAVY-AUG-CC-PV(Q+D)Z
    Blend: HEAVY-AUG-CC-PV(Q+D)Z
    Number of shells: 180
    Number of basis function: 660
    Number of Cartesian functions: 840
    Spherical Harmonics?: true
    Max angular momentum: 4

   => Loading Basis Set <=

    Name: (HEAVY-AUG-CC-PV(Q+D)Z AUX)
    Role: JKFIT
    Keyword: DF_BASIS_SCF
    atoms 1, 4, 7, 10     entry C          line   214 file /opt/psi/4/master/share/psi4/basis/heavy-aug-cc-pvqz-jkfit.gbs 
    atoms 2-3, 5-6, 8, 11 entry H          line   116 file /opt/psi/4/master/share/psi4/basis/heavy-aug-cc-pvqz-jkfit.gbs 
    atoms 9, 12           entry O          line   354 file /opt/psi/4/master/share/psi4/basis/heavy-aug-cc-pvqz-jkfit.gbs 


  Computing basis projection from PCSEG-0 to HEAVY-AUG-CC-PV(Q+D)Z

  ==> Integral Setup <==

  ==> DiskDFJK: Density-Fitted J/K Matrices <==

    J tasked:                  Yes
    K tasked:                  Yes
    wK tasked:                  No
    OpenMP threads:              4
    Integrals threads:           4
    Memory [MiB]:              375
    Algorithm:                Disk
    Integral Cache:           NONE
    Schwarz Cutoff:          1E-12
    Fitting Condition:       1E-10

   => Auxiliary Basis Set <=

  Basis Set: (HEAVY-AUG-CC-PV(Q+D)Z AUX)
    Blend: HEAVY-AUG-CC-PVQZ-JKFIT
    Number of shells: 282
    Number of basis function: 1158
    Number of Cartesian functions: 1584
    Spherical Harmonics?: true
    Max angular momentum: 5

  Minimum eigenvalue in the overlap matrix is 1.0914034372E-06.
  Reciprocal condition number of the overlap matrix is 6.9981601086E-08.
    Using symmetric orthogonalization.

  ==> Pre-Iterations <==

  SCF Guess: Orbitals guess was supplied from a previous computation.

   -------------------------
    Irrep   Nso     Nmo    
   -------------------------
     A        660     660 
   -------------------------
    Total     660     660
   -------------------------

  ==> Iterations <==

                           Total Energy        Delta E     RMS |[F,P]|

   @DF-RHF iter   0:  -304.22241915677307   -3.04222e+02   4.48097e-03 
   @DF-RHF iter   1:  -304.73372656118164   -5.11307e-01   3.36592e-04 DIIS
   @DF-RHF iter   2:  -304.74975756256902   -1.60310e-02   1.53670e-04 DIIS
   @DF-RHF iter   3:  -304.75362983824868   -3.87228e-03   2.81185e-05 DIIS
   @DF-RHF iter   4:  -304.75390683359103   -2.76995e-04   8.45684e-06 DIIS
   @DF-RHF iter   5:  -304.75392911816272   -2.22846e-05   3.57753e-06 DIIS
   @DF-RHF iter   6:  -304.75393292372428   -3.80556e-06   8.40655e-07 DIIS
   @DF-RHF iter   7:  -304.75393323253002   -3.08806e-07   1.79363e-07 DIIS
   @DF-RHF iter   8:  -304.75393324758073   -1.50507e-08   4.57237e-08 DIIS
   @DF-RHF iter   9:  -304.75393324867014   -1.08940e-09   1.48941e-08 DIIS
   @DF-RHF iter  10:  -304.75393324875682   -8.66862e-11   3.82359e-09 DIIS
   @DF-RHF iter  11:  -304.75393324876626   -9.43601e-12   9.81712e-10 DIIS
   @DF-RHF iter  12:  -304.75393324876597    2.84217e-13   2.84299e-10 DIIS
   @DF-RHF iter  13:  -304.75393324876507    9.09495e-13   5.96221e-11 DIIS
  Energy and wave function converged.


  ==> Post-Iterations <==

    Orbital Energies [Eh]
    ---------------------

    Doubly Occupied:                                                      

       1A    -20.565180     2A    -20.565142     3A    -11.348554  
       4A    -11.348504     5A    -11.236537     6A    -11.235966  
       7A     -1.490819     8A     -1.292211     9A     -1.067460  
      10A     -0.987930    11A     -0.810309    12A     -0.789540  
      13A     -0.746596    14A     -0.672467    15A     -0.651314  
      16A     -0.646674    17A     -0.534304    18A     -0.524584  
      19A     -0.519420    20A     -0.512167    21A     -0.510212  
      22A     -0.459725    23A     -0.433699  

    Virtual:                                                              

      24A      0.041407    25A      0.042856    26A      0.050667  
      27A      0.062620    28A      0.063925    29A      0.079820  
      30A      0.080144    31A      0.083436    32A      0.101421  
      33A      0.110251    34A      0.111673    35A      0.112247  
      36A      0.139345    37A      0.151640    38A      0.166287  
      39A      0.171438    40A      0.178465    41A      0.178827  
      42A      0.188830    43A      0.188965    44A      0.199057  
      45A      0.207259    46A      0.226473    47A      0.227211  
      48A      0.229653    49A      0.257261    50A      0.260919  
      51A      0.270300    52A      0.270860    53A      0.271812  
      54A      0.286596    55A      0.288138    56A      0.291087  
      57A      0.301092    58A      0.316680    59A      0.320011  
      60A      0.325025    61A      0.333743    62A      0.337635  
      63A      0.355661    64A      0.358157    65A      0.369554  
      66A      0.380981    67A      0.388151    68A      0.389576  
      69A      0.391525    70A      0.391751    71A      0.395725  
      72A      0.398872    73A      0.412311    74A      0.420387  
      75A      0.420613    76A      0.440260    77A      0.453071  
      78A      0.456222    79A      0.462790    80A      0.495181  
      81A      0.515261    82A      0.518860    83A      0.522850  
      84A      0.528489    85A      0.550753    86A      0.571893  
      87A      0.574277    88A      0.585325    89A      0.589217  
      90A      0.598578    91A      0.600194    92A      0.613290  
      93A      0.629232    94A      0.641301    95A      0.653782  
      96A      0.659966    97A      0.684930    98A      0.689019  
      99A      0.695850   100A      0.704745   101A      0.716144  
     102A      0.716707   103A      0.732374   104A      0.743566  
     105A      0.757811   106A      0.764557   107A      0.790011  
     108A      0.790493   109A      0.794290   110A      0.795471  
     111A      0.827251   112A      0.832068   113A      0.833153  
     114A      0.849303   115A      0.860872   116A      0.875721  
     117A      0.884476   118A      0.897053   119A      0.920058  
     120A      0.938694   121A      0.947586   122A      0.957859  
     123A      0.961253   124A      0.988525   125A      1.002343  
     126A      1.010169   127A      1.011356   128A      1.016032  
     129A      1.034052   130A      1.035430   131A      1.046750  
     132A      1.062546   133A      1.070085   134A      1.075564  
     135A      1.096275   136A      1.114699   137A      1.128844  
     138A      1.140228   139A      1.155007   140A      1.159083  
     141A      1.160281   142A      1.166405   143A      1.168874  
     144A      1.175952   145A      1.191245   146A      1.198173  
     147A      1.208964   148A      1.221958   149A      1.229463  
     150A      1.234648   151A      1.238459   152A      1.239500  
     153A      1.244971   154A      1.276375   155A      1.276909  
     156A      1.287868   157A      1.288013   158A      1.306520  
     159A      1.314892   160A      1.327830   161A      1.370681  
     162A      1.371310   163A      1.408028   164A      1.408945  
     165A      1.437224   166A      1.442718   167A      1.458931  
     168A      1.469750   169A      1.474982   170A      1.485656  
     171A      1.491336   172A      1.508510   173A      1.525485  
     174A      1.534827   175A      1.544038   176A      1.593457  
     177A      1.594340   178A      1.618341   179A      1.620322  
     180A      1.625448   181A      1.626524   182A      1.647822  
     183A      1.682929   184A      1.687472   185A      1.699086  
     186A      1.723574   187A      1.728483   188A      1.731004  
     189A      1.757392   190A      1.775755   191A      1.776215  
     192A      1.815245   193A      1.865635   194A      1.870832  
     195A      1.885962   196A      1.901003   197A      1.911962  
     198A      1.923959   199A      1.961048   200A      1.968435  
     201A      1.996934   202A      1.997447   203A      2.018149  
     204A      2.026415   205A      2.026621   206A      2.028277  
     207A      2.032603   208A      2.039835   209A      2.044132  
     210A      2.106916   211A      2.116284   212A      2.125196  
     213A      2.142215   214A      2.143356   215A      2.174095  
     216A      2.187881   217A      2.188130   218A      2.209242  
     219A      2.249321   220A      2.258657   221A      2.265975  
     222A      2.293621   223A      2.293716   224A      2.306466  
     225A      2.335810   226A      2.341680   227A      2.359141  
     228A      2.363180   229A      2.366668   230A      2.373473  
     231A      2.389431   232A      2.395835   233A      2.403149  
     234A      2.418554   235A      2.441535   236A      2.442522  
     237A      2.462785   238A      2.485248   239A      2.492526  
     240A      2.517497   241A      2.526245   242A      2.533310  
     243A      2.548506   244A      2.559994   245A      2.584291  
     246A      2.587481   247A      2.621333   248A      2.626400  
     249A      2.634393   250A      2.645235   251A      2.660578  
     252A      2.682550   253A      2.705906   254A      2.714023  
     255A      2.729249   256A      2.730883   257A      2.751267  
     258A      2.763436   259A      2.764073   260A      2.801489  
     261A      2.803417   262A      2.812163   263A      2.832387  
     264A      2.858381   265A      2.866659   266A      2.919083  
     267A      2.935385   268A      2.941051   269A      2.966655  
     270A      2.974785   271A      2.986842   272A      2.987207  
     273A      3.009149   274A      3.031489   275A      3.041238  
     276A      3.048646   277A      3.074834   278A      3.076923  
     279A      3.084036   280A      3.104024   281A      3.109914  
     282A      3.136577   283A      3.142956   284A      3.153499  
     285A      3.170090   286A      3.187257   287A      3.223069  
     288A      3.248085   289A      3.259530   290A      3.268026  
     291A      3.288293   292A      3.292827   293A      3.320298  
     294A      3.362957   295A      3.367121   296A      3.394910  
     297A      3.398543   298A      3.402841   299A      3.431579  
     300A      3.452757   301A      3.464642   302A      3.474491  
     303A      3.501835   304A      3.524042   305A      3.536223  
     306A      3.549395   307A      3.572122   308A      3.598299  
     309A      3.610018   310A      3.618382   311A      3.635905  
     312A      3.661444   313A      3.691049   314A      3.706584  
     315A      3.717045   316A      3.746891   317A      3.752470  
     318A      3.757187   319A      3.805621   320A      3.834625  
     321A      3.843411   322A      3.844061   323A      3.872948  
     324A      3.908395   325A      3.909187   326A      3.917024  
     327A      3.950491   328A      3.963363   329A      3.982057  
     330A      4.040625   331A      4.041464   332A      4.048112  
     333A      4.061300   334A      4.085274   335A      4.099749  
     336A      4.120069   337A      4.134557   338A      4.157137  
     339A      4.173014   340A      4.203008   341A      4.206189  
     342A      4.217748   343A      4.238181   344A      4.244194  
     345A      4.273276   346A      4.292907   347A      4.317671  
     348A      4.331509   349A      4.336747   350A      4.357520  
     351A      4.406267   352A      4.426970   353A      4.439679  
     354A      4.452214   355A      4.459688   356A      4.489491  
     357A      4.497692   358A      4.512058   359A      4.517331  
     360A      4.541215   361A      4.568960   362A      4.594003  
     363A      4.627402   364A      4.652711   365A      4.669571  
     366A      4.691882   367A      4.696490   368A      4.698320  
     369A      4.718601   370A      4.736754   371A      4.749979  
     372A      4.761963   373A      4.787625   374A      4.823574  
     375A      4.823942   376A      4.826544   377A      4.844403  
     378A      4.846112   379A      4.901121   380A      4.942458  
     381A      4.976714   382A      5.000728   383A      5.001495  
     384A      5.021267   385A      5.059416   386A      5.122352  
     387A      5.154880   388A      5.164043   389A      5.183095  
     390A      5.237104   391A      5.244831   392A      5.253111  
     393A      5.276892   394A      5.289440   395A      5.304899  
     396A      5.342117   397A      5.357867   398A      5.374673  
     399A      5.407368   400A      5.488804   401A      5.512632  
     402A      5.555355   403A      5.582360   404A      5.626934  
     405A      5.647289   406A      5.649223   407A      5.669267  
     408A      5.782255   409A      5.821933   410A      5.828808  
     411A      5.837513   412A      5.897843   413A      5.973492  
     414A      6.030797   415A      6.102483   416A      6.137646  
     417A      6.192962   418A      6.214202   419A      6.227693  
     420A      6.236605   421A      6.293036   422A      6.335896  
     423A      6.338531   424A      6.345831   425A      6.366737  
     426A      6.398203   427A      6.417411   428A      6.459119  
     429A      6.491081   430A      6.496179   431A      6.511950  
     432A      6.520092   433A      6.531136   434A      6.577510  
     435A      6.586369   436A      6.612254   437A      6.638700  
     438A      6.644058   439A      6.656606   440A      6.680292  
     441A      6.700049   442A      6.700801   443A      6.717525  
     444A      6.748179   445A      6.765889   446A      6.781974  
     447A      6.814541   448A      6.820530   449A      6.855440  
     450A      6.885502   451A      6.913348   452A      6.914780  
     453A      6.921737   454A      6.925551   455A      6.937954  
     456A      6.976591   457A      6.988215   458A      7.011116  
     459A      7.039485   460A      7.092764   461A      7.101488  
     462A      7.105017   463A      7.134104   464A      7.152899  
     465A      7.179263   466A      7.194930   467A      7.196029  
     468A      7.219093   469A      7.222000   470A      7.249217  
     471A      7.276621   472A      7.304344   473A      7.353326  
     474A      7.359789   475A      7.366809   476A      7.418932  
     477A      7.429948   478A      7.437035   479A      7.468809  
     480A      7.528629   481A      7.541315   482A      7.583953  
     483A      7.600874   484A      7.604268   485A      7.635669  
     486A      7.707512   487A      7.731024   488A      7.741411  
     489A      7.751340   490A      7.782845   491A      7.802308  
     492A      7.833144   493A      7.841285   494A      7.844037  
     495A      7.917683   496A      7.936828   497A      7.943067  
     498A      7.986628   499A      7.996706   500A      8.014012  
     501A      8.015545   502A      8.042424   503A      8.085010  
     504A      8.105358   505A      8.146793   506A      8.155322  
     507A      8.190968   508A      8.192914   509A      8.322648  
     510A      8.326735   511A      8.334992   512A      8.351824  
     513A      8.378543   514A      8.408662   515A      8.413540  
     516A      8.478092   517A      8.495981   518A      8.497567  
     519A      8.531976   520A      8.552408   521A      8.557653  
     522A      8.586407   523A      8.609890   524A      8.612033  
     525A      8.649593   526A      8.686710   527A      8.706958  
     528A      8.715937   529A      8.762854   530A      8.813910  
     531A      8.825452   532A      8.837590   533A      8.841026  
     534A      8.841368   535A      8.879682   536A      8.900855  
     537A      8.903750   538A      8.936644   539A      8.957173  
     540A      8.993385   541A      9.015523   542A      9.027586  
     543A      9.033685   544A      9.048423   545A      9.055761  
     546A      9.085609   547A      9.109768   548A      9.117425  
     549A      9.172030   550A      9.177158   551A      9.190021  
     552A      9.234272   553A      9.248487   554A      9.314935  
     555A      9.343386   556A      9.351670   557A      9.352494  
     558A      9.366668   559A      9.401745   560A      9.453437  
     561A      9.497703   562A      9.513093   563A      9.526489  
     564A      9.557645   565A      9.649127   566A      9.659210  
     567A      9.728034   568A      9.755518   569A      9.768983  
     570A      9.790342   571A      9.835222   572A      9.900389  
     573A      9.919870   574A      9.930909   575A      9.959763  
     576A     10.067563   577A     10.117392   578A     10.233891  
     579A     10.242392   580A     10.256419   581A     10.294680  
     582A     10.417310   583A     10.478269   584A     10.507255  
     585A     10.509179   586A     10.593242   587A     10.629162  
     588A     10.642940   589A     10.780302   590A     10.795094  
     591A     10.824675   592A     10.827193   593A     10.973503  
     594A     11.001946   595A     11.064780   596A     11.071812  
     597A     11.101629   598A     11.105965   599A     11.130811  
     600A     11.153760   601A     11.162332   602A     11.209784  
     603A     11.225751   604A     11.251956   605A     11.334346  
     606A     11.383691   607A     11.452135   608A     11.455416  
     609A     11.494438   610A     11.498785   611A     11.508215  
     612A     11.542478   613A     11.619515   614A     11.645176  
     615A     11.721955   616A     11.813711   617A     11.819996  
     618A     11.847496   619A     11.885820   620A     11.907912  
     621A     12.198701   622A     12.253634   623A     12.316580  
     624A     12.378357   625A     12.640943   626A     12.651307  
     627A     12.825464   628A     12.869996   629A     12.964543  
     630A     13.028266   631A     13.075720   632A     13.075967  
     633A     13.183977   634A     13.241098   635A     13.256884  
     636A     13.354465   637A     13.357472   638A     13.386412  
     639A     13.422016   640A     13.512402   641A     13.523374  
     642A     13.532816   643A     13.717735   644A     13.737309  
     645A     13.789276   646A     13.813479   647A     13.846799  
     648A     13.908483   649A     13.968802   650A     13.979370  
     651A     14.123347   652A     14.155081   653A     14.690277  
     654A     14.883896   655A     27.255384   656A     27.849494  
     657A     28.046513   658A     28.613869   659A     44.796989  
     660A     45.695817  

    Final Occupation by Irrep:
              A 
    DOCC [    23 ]

  @DF-RHF Final Energy:  -304.75393324876507

   => Energetics <=

    Nuclear Repulsion Energy =            257.0150992600862310
    One-Electron Energy =                -925.6394318389952787
    Two-Electron Energy =                 363.8703993301439823
    Total Energy =                       -304.7539332487650654

Computation Completed


Properties will be evaluated at   0.000000,   0.000000,   0.000000 [a0]

Properties computed using the SCF density matrix

  Nuclear Dipole Moment: [e a0]
     X:    -4.4919      Y:    -0.0026      Z:    -0.0001

  Electronic Dipole Moment: [e a0]
     X:     3.7198      Y:     0.0027      Z:    -0.0001

  Dipole Moment: [e a0]
     X:    -0.7720      Y:     0.0001      Z:    -0.0003     Total:     0.7720

  Dipole Moment: [D]
     X:    -1.9624      Y:     0.0002      Z:    -0.0007     Total:     1.9624


*** tstop() called on n061 at Mon Jun  8 15:00:07 2020
Module time:
	user time   =     170.81 seconds =       2.85 minutes
	system time =       6.90 seconds =       0.12 minutes
	total time  =         47 seconds =       0.78 minutes
Total time:
	user time   =     170.81 seconds =       2.85 minutes
	system time =       6.90 seconds =       0.12 minutes
	total time  =         47 seconds =       0.78 minutes

*** tstart() called on n061
*** at Mon Jun  8 15:00:07 2020


  //>>>>>>>>>>>>>>>>>>>>>>>>>>>>>>>>>>>//
  //               DFMP2               //
  //<<<<<<<<<<<<<<<<<<<<<<<<<<<<<<<<<<<//

   => Loading Basis Set <=

    Name: (HEAVY-AUG-CC-PV(Q+D)Z AUX)
    Role: RIFIT
    Keyword: DF_BASIS_MP2
    atoms 1, 4, 7, 10     entry C          line   180 file /opt/psi/4/master/share/psi4/basis/heavy-aug-cc-pvqz-ri.gbs 
    atoms 2-3, 5-6, 8, 11 entry H          line    44 file /opt/psi/4/master/share/psi4/basis/heavy-aug-cc-pvqz-ri.gbs 
    atoms 9, 12           entry O          line   328 file /opt/psi/4/master/share/psi4/basis/heavy-aug-cc-pvqz-ri.gbs 

	 --------------------------------------------------------
	                          DF-MP2                         
	      2nd-Order Density-Fitted Moller-Plesset Theory     
	              RMP2 Wavefunction,   4 Threads             
	                                                         
	        Rob Parrish, Justin Turney, Andy Simmonett,      
	           Ed Hohenstein, and C. David Sherrill          
	 --------------------------------------------------------

   => Auxiliary Basis Set <=

  Basis Set: (HEAVY-AUG-CC-PV(Q+D)Z AUX)
    Blend: HEAVY-AUG-CC-PVQZ-RI
    Number of shells: 306
    Number of basis function: 1338
    Number of Cartesian functions: 1842
    Spherical Harmonics?: true
    Max angular momentum: 5

	 --------------------------------------------------------
	                 NBF =   660, NAUX =  1338
	 --------------------------------------------------------
	   CLASS    FOCC     OCC    AOCC    AVIR     VIR    FVIR
	   PAIRS       6      23      17     637     637       0
	 --------------------------------------------------------

	-----------------------------------------------------------
	 ==================> DF-MP2 Energies <==================== 
	-----------------------------------------------------------
	 Reference Energy          =    -304.7539332487650654 [Eh]
	 Singles Energy            =      -0.0000000000000000 [Eh]
	 Same-Spin Energy          =      -0.2941258488532084 [Eh]
	 Opposite-Spin Energy      =      -0.9238377175213484 [Eh]
	 Correlation Energy        =      -1.2179635663745567 [Eh]
	 Total Energy              =    -305.9718968151396439 [Eh]
	-----------------------------------------------------------
	 ================> DF-SCS-MP2 Energies <================== 
	-----------------------------------------------------------
	 SCS Same-Spin Scale       =       0.3333333333333333 [-]
	 SCS Opposite-Spin Scale   =       1.2000000000000000 [-]
	 SCS Same-Spin Energy      =      -0.0980419496177361 [Eh]
	 SCS Opposite-Spin Energy  =      -1.1086052610256181 [Eh]
	 SCS Correlation Energy    =      -1.2066472106433541 [Eh]
	 SCS Total Energy          =    -305.9605804594084475 [Eh]
	-----------------------------------------------------------


*** tstop() called on n061 at Mon Jun  8 15:00:16 2020
Module time:
	user time   =      35.57 seconds =       0.59 minutes
	system time =       0.66 seconds =       0.01 minutes
	total time  =          9 seconds =       0.15 minutes
Total time:
	user time   =     206.39 seconds =       3.44 minutes
	system time =       7.56 seconds =       0.13 minutes
	total time  =         56 seconds =       0.93 minutes

========================OPTAVC-XTPL==========================

MP2/QZ correlation energy -1.2179635663745567
SCF/QZ reference energy -304.75393324876507


=============================================================

Scratch directory: /tmp/

Scratch directory: /tmp/
    SCF Algorithm Type (re)set to DF.

*** tstart() called on n061
*** at Mon Jun  8 15:00:16 2020


  //>>>>>>>>>>>>>>>>>>>>>>>>>>>>>>>>>>>//
  //      Guess SCF, pcseg-0 Basis     //
  //<<<<<<<<<<<<<<<<<<<<<<<<<<<<<<<<<<<//

   => Loading Basis Set <=

    Name: PCSEG-0
    Role: ORBITAL
    Keyword: BASIS
    atoms 1, 4, 7, 10     entry C          line    71 file /opt/psi/4/master/share/psi4/basis/pcseg-0.gbs 
    atoms 2-3, 5-6, 8, 11 entry H          line    13 file /opt/psi/4/master/share/psi4/basis/pcseg-0.gbs 
    atoms 9, 12           entry O          line   103 file /opt/psi/4/master/share/psi4/basis/pcseg-0.gbs 


         ---------------------------------------------------------
                           SCF Castup computation                  
         ---------------------------------------------------------
                                   SCF
               by Justin Turney, Rob Parrish, Andy Simmonett
                          and Daniel G. A. Smith
                              RHF Reference
                        4 Threads,    500 MiB Core
         ---------------------------------------------------------

  ==> Geometry <==

    Molecular point group: c1
    Full point group: C1

    Geometry (in Angstrom), charge = 0, multiplicity = 1:

       Center              X                  Y                   Z               Mass       
    ------------   -----------------  -----------------  -----------------  -----------------
         C           -1.174143750690    -0.774963495581    -0.000122054786    12.000000000000
         H           -1.619161817890    -1.211058947381    -0.891063737386     1.007825032230
         H           -1.619236641990    -1.211251475481     0.890686519114     1.007825032230
         C           -1.174259935390     0.774782497019     0.000039298714    12.000000000000
         H           -1.619408715490     1.210812725519     0.890946481514     1.007825032230
         H           -1.619363714790     1.208590592762    -0.890761601681     1.007825032230
         C            0.353007271405     0.922364905199     0.000130072237    12.000000000000
         H            0.839103074604     1.892383459806     0.000274629423     1.007825032230
         O            0.767402866877     0.000206026724    -1.027348754139    15.994914619570
         C            0.352816458711    -0.922138785736    -0.000107652903    12.000000000000
         H            0.838717101345    -1.892254269734    -0.000221963155     1.007825032230
         O            0.767326504530    -0.000064844290     1.027402821696    15.994914619570

  Running in c1 symmetry.

  Rotational constants: A =      0.19853  B =      0.16230  C =      0.14678 [cm^-1]
  Rotational constants: A =   5951.77448  B =   4865.49291  C =   4400.22529 [MHz]
  Nuclear repulsion =  257.015099260086231

  Charge       = 0
  Multiplicity = 1
  Electrons    = 46
  Nalpha       = 23
  Nbeta        = 23

  ==> Algorithm <==

  SCF Algorithm Type is DF.
  DIIS enabled.
  MOM disabled.
  Fractional occupation disabled.
  Guess Type is SAD.
  Energy threshold   = 1.00e-10
  Density threshold  = 1.00e-10
  Integral threshold = 0.00e+00

  ==> Primary Basis <==

  Basis Set: PCSEG-0
    Blend: PCSEG-0
    Number of shells: 42
    Number of basis function: 66
    Number of Cartesian functions: 66
    Spherical Harmonics?: true
    Max angular momentum: 1

   => Loading Basis Set <=

    Name: (PCSEG-0 AUX)
    Role: JKFIT
    Keyword: DF_BASIS_SCF
    atoms 1, 4, 7, 10     entry C          line   198 file /opt/psi/4/master/share/psi4/basis/def2-universal-jkfit.gbs 
    atoms 2-3, 5-6, 8, 11 entry H          line    18 file /opt/psi/4/master/share/psi4/basis/def2-universal-jkfit.gbs 
    atoms 9, 12           entry O          line   318 file /opt/psi/4/master/share/psi4/basis/def2-universal-jkfit.gbs 

  ==> Integral Setup <==

  ==> DiskDFJK: Density-Fitted J/K Matrices <==

    J tasked:                  Yes
    K tasked:                  Yes
    wK tasked:                  No
    OpenMP threads:              4
    Integrals threads:           4
    Memory [MiB]:              375
    Algorithm:                Core
    Integral Cache:           NONE
    Schwarz Cutoff:          1E-12
    Fitting Condition:       1E-10

   => Auxiliary Basis Set <=

  Basis Set: (PCSEG-0 AUX)
    Blend: DEF2-UNIVERSAL-JKFIT
    Number of shells: 186
    Number of basis function: 562
    Number of Cartesian functions: 662
    Spherical Harmonics?: true
    Max angular momentum: 4

  Minimum eigenvalue in the overlap matrix is 1.2846045444E-03.
  Reciprocal condition number of the overlap matrix is 2.1215551964E-04.
    Using symmetric orthogonalization.

  ==> Pre-Iterations <==

  SCF Guess: Superposition of Atomic Densities via on-the-fly atomic UHF (no occupation information).

   -------------------------
    Irrep   Nso     Nmo    
   -------------------------
     A         66      66 
   -------------------------
    Total      66      66
   -------------------------

  ==> Iterations <==

                           Total Energy        Delta E     RMS |[F,P]|

   @DF-RHF iter SAD:  -303.69655228245591   -3.03697e+02   0.00000e+00 
   @DF-RHF iter   1:  -303.56575966204844    1.30793e-01   7.24047e-03 DIIS
   @DF-RHF iter   2:  -303.66480829686225   -9.90486e-02   3.96871e-03 DIIS
   @DF-RHF iter   3:  -303.69042028900003   -2.56120e-02   6.19852e-04 DIIS
   @DF-RHF iter   4:  -303.69160527481489   -1.18499e-03   1.96455e-04 DIIS
   @DF-RHF iter   5:  -303.69170103569354   -9.57609e-05   4.10573e-05 DIIS
   @DF-RHF iter   6:  -303.69170862884454   -7.59315e-06   8.37965e-06 DIIS
   @DF-RHF iter   7:  -303.69170903184732   -4.03003e-07   1.68664e-06 DIIS
   @DF-RHF iter   8:  -303.69170904594546   -1.40981e-08   5.41852e-07 DIIS
   @DF-RHF iter   9:  -303.69170904736063   -1.41517e-09   1.09347e-07 DIIS
   @DF-RHF iter  10:  -303.69170904743754   -7.69091e-11   1.85727e-08 DIIS
   @DF-RHF iter  11:  -303.69170904743964   -2.10321e-12   2.78617e-09 DIIS
   @DF-RHF iter  12:  -303.69170904743987   -2.27374e-13   7.60308e-10 DIIS
   @DF-RHF iter  13:  -303.69170904743970    1.70530e-13   2.88305e-10 DIIS
   @DF-RHF iter  14:  -303.69170904743976   -5.68434e-14   5.70048e-11 DIIS
  Energy and wave function converged.


  ==> Post-Iterations <==

    Orbital Energies [Eh]
    ---------------------

    Doubly Occupied:                                                      

       1A    -20.584525     2A    -20.584462     3A    -11.369630  
       4A    -11.369592     5A    -11.256080     6A    -11.255678  
       7A     -1.537543     8A     -1.312964     9A     -1.091838  
      10A     -1.008918    11A     -0.821925    12A     -0.790212  
      13A     -0.768277    14A     -0.680687    15A     -0.663094  
      16A     -0.658503    17A     -0.552319    18A     -0.534389  
      19A     -0.527397    20A     -0.524519    21A     -0.519598  
      22A     -0.467026    23A     -0.443255  

    Virtual:                                                              

      24A      0.203095    25A      0.231211    26A      0.236159  
      27A      0.242147    28A      0.253165    29A      0.267408  
      30A      0.314439    31A      0.350189    32A      0.350983  
      33A      0.382108    34A      0.406843    35A      0.464621  
      36A      0.570258    37A      0.796373    38A      0.807928  
      39A      0.821082    40A      0.925680    41A      0.932767  
      42A      0.947028    43A      0.950055    44A      1.003538  
      45A      1.005123    46A      1.030113    47A      1.060628  
      48A      1.072101    49A      1.134070    50A      1.148827  
      51A      1.170483    52A      1.174285    53A      1.210926  
      54A      1.238020    55A      1.424432    56A      1.455027  
      57A      1.482482    58A      1.521996    59A      1.691239  
      60A      1.705483    61A      1.927990    62A      1.950909  
      63A      2.140094    64A      2.299090    65A      2.375002  
      66A      2.441154  

    Final Occupation by Irrep:
              A 
    DOCC [    23 ]

  @DF-RHF Final Energy:  -303.69170904743976

   => Energetics <=

    Nuclear Repulsion Energy =            257.0150992600862310
    One-Electron Energy =                -922.7687538453976686
    Two-Electron Energy =                 362.0619455378716793
    Total Energy =                       -303.6917090474397583

Computation Completed

  //>>>>>>>>>>>>>>>>>>>>>>>>>>>>>>>>>>>//
  //                SCF                //
  //<<<<<<<<<<<<<<<<<<<<<<<<<<<<<<<<<<<//

   => Loading Basis Set <=

    Name: HEAVY-AUG-CC-PV(T+D)Z
    Role: ORBITAL
    Keyword: BASIS
    atoms 1, 4, 7, 10     entry C          line   273 file /opt/psi/4/master/share/psi4/basis/heavy-aug-cc-pv_tpd_z.gbs 
    atoms 2-3, 5-6, 8, 11 entry H          line    86 file /opt/psi/4/master/share/psi4/basis/heavy-aug-cc-pv_tpd_z.gbs 
    atoms 9, 12           entry O          line   365 file /opt/psi/4/master/share/psi4/basis/heavy-aug-cc-pv_tpd_z.gbs 


         ---------------------------------------------------------
                                   SCF
               by Justin Turney, Rob Parrish, Andy Simmonett
                          and Daniel G. A. Smith
                              RHF Reference
                        4 Threads,    500 MiB Core
         ---------------------------------------------------------

  ==> Geometry <==

    Molecular point group: c1
    Full point group: C1

    Geometry (in Angstrom), charge = 0, multiplicity = 1:

       Center              X                  Y                   Z               Mass       
    ------------   -----------------  -----------------  -----------------  -----------------
         C           -1.174143750690    -0.774963495581    -0.000122054786    12.000000000000
         H           -1.619161817890    -1.211058947381    -0.891063737386     1.007825032230
         H           -1.619236641990    -1.211251475481     0.890686519114     1.007825032230
         C           -1.174259935390     0.774782497019     0.000039298714    12.000000000000
         H           -1.619408715490     1.210812725519     0.890946481514     1.007825032230
         H           -1.619363714790     1.208590592762    -0.890761601681     1.007825032230
         C            0.353007271405     0.922364905199     0.000130072237    12.000000000000
         H            0.839103074604     1.892383459806     0.000274629423     1.007825032230
         O            0.767402866877     0.000206026724    -1.027348754139    15.994914619570
         C            0.352816458711    -0.922138785736    -0.000107652903    12.000000000000
         H            0.838717101345    -1.892254269734    -0.000221963155     1.007825032230
         O            0.767326504530    -0.000064844290     1.027402821696    15.994914619570

  Running in c1 symmetry.

  Rotational constants: A =      0.19853  B =      0.16230  C =      0.14678 [cm^-1]
  Rotational constants: A =   5951.77448  B =   4865.49291  C =   4400.22529 [MHz]
  Nuclear repulsion =  257.015099260086231

  Charge       = 0
  Multiplicity = 1
  Electrons    = 46
  Nalpha       = 23
  Nbeta        = 23

  ==> Algorithm <==

  SCF Algorithm Type is DF.
  DIIS enabled.
  MOM disabled.
  Fractional occupation disabled.
  Guess Type is SAD.
  Energy threshold   = 1.00e-10
  Density threshold  = 1.00e-10
  Integral threshold = 0.00e+00

  ==> Primary Basis <==

  Basis Set: HEAVY-AUG-CC-PV(T+D)Z
    Blend: HEAVY-AUG-CC-PV(T+D)Z
    Number of shells: 120
    Number of basis function: 360
    Number of Cartesian functions: 420
    Spherical Harmonics?: true
    Max angular momentum: 3

   => Loading Basis Set <=

    Name: (HEAVY-AUG-CC-PV(T+D)Z AUX)
    Role: JKFIT
    Keyword: DF_BASIS_SCF
    atoms 1, 4, 7, 10     entry C          line   200 file /opt/psi/4/master/share/psi4/basis/heavy-aug-cc-pvtz-jkfit.gbs 
    atoms 2-3, 5-6, 8, 11 entry H          line   116 file /opt/psi/4/master/share/psi4/basis/heavy-aug-cc-pvtz-jkfit.gbs 
    atoms 9, 12           entry O          line   324 file /opt/psi/4/master/share/psi4/basis/heavy-aug-cc-pvtz-jkfit.gbs 


  Computing basis projection from PCSEG-0 to HEAVY-AUG-CC-PV(T+D)Z

  ==> Integral Setup <==

  ==> DiskDFJK: Density-Fitted J/K Matrices <==

    J tasked:                  Yes
    K tasked:                  Yes
    wK tasked:                  No
    OpenMP threads:              4
    Integrals threads:           4
    Memory [MiB]:              375
    Algorithm:                Disk
    Integral Cache:           NONE
    Schwarz Cutoff:          1E-12
    Fitting Condition:       1E-10

   => Auxiliary Basis Set <=

  Basis Set: (HEAVY-AUG-CC-PV(T+D)Z AUX)
    Blend: HEAVY-AUG-CC-PVTZ-JKFIT
    Number of shells: 240
    Number of basis function: 804
    Number of Cartesian functions: 996
    Spherical Harmonics?: true
    Max angular momentum: 4

  Minimum eigenvalue in the overlap matrix is 5.5174608324E-06.
  Reciprocal condition number of the overlap matrix is 4.0334041971E-07.
    Using symmetric orthogonalization.

  ==> Pre-Iterations <==

  SCF Guess: Orbitals guess was supplied from a previous computation.

   -------------------------
    Irrep   Nso     Nmo    
   -------------------------
     A        360     360 
   -------------------------
    Total     360     360
   -------------------------

  ==> Iterations <==

                           Total Energy        Delta E     RMS |[F,P]|

   @DF-RHF iter   0:  -304.36281173352882   -3.04363e+02   4.15942e-03 
   @DF-RHF iter   1:  -304.71637845130783   -3.53567e-01   5.72510e-04 DIIS
   @DF-RHF iter   2:  -304.73154025106732   -1.51618e-02   2.71801e-04 DIIS
   @DF-RHF iter   3:  -304.73523277808317   -3.69253e-03   4.87292e-05 DIIS
   @DF-RHF iter   4:  -304.73549666247800   -2.63884e-04   1.57917e-05 DIIS
   @DF-RHF iter   5:  -304.73551771288419   -2.10504e-05   6.25276e-06 DIIS
   @DF-RHF iter   6:  -304.73552161092761   -3.89804e-06   1.42027e-06 DIIS
   @DF-RHF iter   7:  -304.73552187647385   -2.65546e-07   3.12633e-07 DIIS
   @DF-RHF iter   8:  -304.73552189069846   -1.42246e-08   7.97224e-08 DIIS
   @DF-RHF iter   9:  -304.73552189163257   -9.34108e-10   2.59219e-08 DIIS
   @DF-RHF iter  10:  -304.73552189171778   -8.52083e-11   6.47488e-09 DIIS
   @DF-RHF iter  11:  -304.73552189172358   -5.79803e-12   1.69354e-09 DIIS
   @DF-RHF iter  12:  -304.73552189172449   -9.09495e-13   4.83664e-10 DIIS
   @DF-RHF iter  13:  -304.73552189172455   -5.68434e-14   1.05382e-10 DIIS
   @DF-RHF iter  14:  -304.73552189172403    5.11591e-13   5.50912e-11 DIIS
  Energy and wave function converged.


  ==> Post-Iterations <==

    Orbital Energies [Eh]
    ---------------------

    Doubly Occupied:                                                      

       1A    -20.568126     2A    -20.568089     3A    -11.349656  
       4A    -11.349606     5A    -11.237620     6A    -11.237051  
       7A     -1.491626     8A     -1.293007     9A     -1.067710  
      10A     -0.988212    11A     -0.810404    12A     -0.789700  
      13A     -0.746553    14A     -0.672368    15A     -0.651334  
      16A     -0.646526    17A     -0.534229    18A     -0.524428  
      19A     -0.519288    20A     -0.512092    21A     -0.510013  
      22A     -0.459461    23A     -0.433498  

    Virtual:                                                              

      24A      0.050343    25A      0.050955    26A      0.059704  
      27A      0.072059    28A      0.073411    29A      0.092446  
      30A      0.093546    31A      0.096699    32A      0.116611  
      33A      0.126306    34A      0.127403    35A      0.130075  
      36A      0.162104    37A      0.176068    38A      0.195267  
      39A      0.204137    40A      0.206509    41A      0.214128  
      42A      0.220405    43A      0.228363    44A      0.233849  
      45A      0.249378    46A      0.268498    47A      0.268603  
      48A      0.277120    49A      0.295378    50A      0.300757  
      51A      0.312916    52A      0.331198    53A      0.335328  
      54A      0.341783    55A      0.347767    56A      0.356331  
      57A      0.356986    58A      0.362618    59A      0.374768  
      60A      0.397671    61A      0.404441    62A      0.412733  
      63A      0.421307    64A      0.432385    65A      0.446450  
      66A      0.457853    67A      0.465024    68A      0.485312  
      69A      0.492982    70A      0.503867    71A      0.510808  
      72A      0.516671    73A      0.519788    74A      0.527005  
      75A      0.528730    76A      0.543684    77A      0.545934  
      78A      0.580869    79A      0.591984    80A      0.608335  
      81A      0.613195    82A      0.620771    83A      0.653757  
      84A      0.658720    85A      0.673166    86A      0.722127  
      87A      0.735881    88A      0.747562    89A      0.753873  
      90A      0.770281    91A      0.780998    92A      0.791229  
      93A      0.797147    94A      0.815622    95A      0.818631  
      96A      0.828108    97A      0.843974    98A      0.877721  
      99A      0.891349   100A      0.926936   101A      0.928734  
     102A      0.938707   103A      0.946023   104A      0.970377  
     105A      0.985540   106A      0.998675   107A      1.032134  
     108A      1.037330   109A      1.038604   110A      1.060375  
     111A      1.082300   112A      1.096586   113A      1.114167  
     114A      1.120772   115A      1.138275   116A      1.160751  
     117A      1.185525   118A      1.222863   119A      1.247399  
     120A      1.251785   121A      1.261118   122A      1.283414  
     123A      1.321669   124A      1.329836   125A      1.335784  
     126A      1.352855   127A      1.373502   128A      1.383830  
     129A      1.398678   130A      1.403695   131A      1.415139  
     132A      1.446501   133A      1.447640   134A      1.458068  
     135A      1.483404   136A      1.499228   137A      1.505816  
     138A      1.528548   139A      1.546514   140A      1.560237  
     141A      1.581687   142A      1.586428   143A      1.587128  
     144A      1.589210   145A      1.599929   146A      1.654157  
     147A      1.656753   148A      1.670282   149A      1.677165  
     150A      1.684013   151A      1.698590   152A      1.707911  
     153A      1.715645   154A      1.731577   155A      1.735648  
     156A      1.750380   157A      1.752117   158A      1.792024  
     159A      1.799917   160A      1.806975   161A      1.822961  
     162A      1.901763   163A      1.902223   164A      1.930598  
     165A      1.939285   166A      1.949908   167A      1.984923  
     168A      1.990795   169A      2.003254   170A      2.007647  
     171A      2.027070   172A      2.046486   173A      2.055235  
     174A      2.058933   175A      2.150360   176A      2.151604  
     177A      2.209181   178A      2.252373   179A      2.300679  
     180A      2.333109   181A      2.392449   182A      2.401338  
     183A      2.419773   184A      2.443666   185A      2.451149  
     186A      2.472173   187A      2.504649   188A      2.508439  
     189A      2.540630   190A      2.579746   191A      2.628575  
     192A      2.646769   193A      2.682239   194A      2.686012  
     195A      2.723834   196A      2.769173   197A      2.787550  
     198A      2.875383   199A      2.875766   200A      2.891094  
     201A      2.914413   202A      2.921344   203A      2.954034  
     204A      2.959080   205A      2.963983   206A      3.076823  
     207A      3.098031   208A      3.119376   209A      3.127880  
     210A      3.181106   211A      3.186662   212A      3.204348  
     213A      3.215787   214A      3.240550   215A      3.261434  
     216A      3.306533   217A      3.332620   218A      3.408673  
     219A      3.412057   220A      3.414686   221A      3.434569  
     222A      3.441122   223A      3.471905   224A      3.484323  
     225A      3.500953   226A      3.524283   227A      3.538642  
     228A      3.602670   229A      3.626581   230A      3.630568  
     231A      3.666893   232A      3.683025   233A      3.695578  
     234A      3.706175   235A      3.728509   236A      3.730230  
     237A      3.749823   238A      3.816161   239A      3.832849  
     240A      3.843105   241A      3.866019   242A      3.873821  
     243A      3.926781   244A      3.952277   245A      3.959927  
     246A      3.961422   247A      3.964571   248A      4.004028  
     249A      4.018498   250A      4.048914   251A      4.053578  
     252A      4.073919   253A      4.106034   254A      4.111853  
     255A      4.145095   256A      4.163555   257A      4.169826  
     258A      4.180222   259A      4.185800   260A      4.212050  
     261A      4.235148   262A      4.245108   263A      4.258575  
     264A      4.264216   265A      4.268071   266A      4.316140  
     267A      4.343544   268A      4.365948   269A      4.424542  
     270A      4.471384   271A      4.479559   272A      4.482024  
     273A      4.495845   274A      4.511516   275A      4.526615  
     276A      4.552329   277A      4.583634   278A      4.638327  
     279A      4.688433   280A      4.689608   281A      4.702168  
     282A      4.706315   283A      4.731085   284A      4.743911  
     285A      4.755987   286A      4.806167   287A      4.820682  
     288A      4.821384   289A      4.837963   290A      4.886045  
     291A      4.908184   292A      4.957984   293A      4.963542  
     294A      4.964618   295A      5.096716   296A      5.117767  
     297A      5.125503   298A      5.190761   299A      5.194431  
     300A      5.239116   301A      5.266667   302A      5.282277  
     303A      5.394649   304A      5.417633   305A      5.435428  
     306A      5.465160   307A      5.472693   308A      5.581012  
     309A      5.582505   310A      5.596507   311A      5.653946  
     312A      5.705367   313A      5.713445   314A      5.717534  
     315A      5.862433   316A      5.869215   317A      5.897847  
     318A      5.925964   319A      6.060675   320A      6.123306  
     321A      6.140894   322A      6.205916   323A      6.240967  
     324A      6.281637   325A      6.284512   326A      6.347839  
     327A      6.384200   328A      6.492913   329A      6.559906  
     330A      6.901568   331A      6.901605   332A      6.939474  
     333A      6.962612   334A      6.996077   335A      7.024369  
     336A      7.104678   337A      7.128453   338A      7.172247  
     339A      7.189357   340A      7.226286   341A      7.238191  
     342A      7.389191   343A      7.488078   344A      7.587908  
     345A      7.608675   346A      7.634331   347A      7.736835  
     348A      7.793213   349A      7.820833   350A      7.910767  
     351A      8.038042   352A      8.194521   353A      8.219659  
     354A      8.226954   355A     14.244871   356A     15.445826  
     357A     15.553857   358A     15.868655   359A     17.393865  
     360A     18.713774  

    Final Occupation by Irrep:
              A 
    DOCC [    23 ]

  @DF-RHF Final Energy:  -304.73552189172403

   => Energetics <=

    Nuclear Repulsion Energy =            257.0150992600862310
    One-Electron Energy =                -925.5800448946552024
    Two-Electron Energy =                 363.8294237428449378
    Total Energy =                       -304.7355218917240336

Computation Completed


Properties will be evaluated at   0.000000,   0.000000,   0.000000 [a0]

Properties computed using the SCF density matrix

  Nuclear Dipole Moment: [e a0]
     X:    -4.4919      Y:    -0.0026      Z:    -0.0001

  Electronic Dipole Moment: [e a0]
     X:     3.7194      Y:     0.0027      Z:    -0.0001

  Dipole Moment: [e a0]
     X:    -0.7725      Y:     0.0001      Z:    -0.0003     Total:     0.7725

  Dipole Moment: [D]
     X:    -1.9635      Y:     0.0001      Z:    -0.0007     Total:     1.9635


*** tstop() called on n061 at Mon Jun  8 15:00:27 2020
Module time:
	user time   =      36.02 seconds =       0.60 minutes
	system time =       1.80 seconds =       0.03 minutes
	total time  =         11 seconds =       0.18 minutes
Total time:
	user time   =     242.89 seconds =       4.05 minutes
	system time =       9.54 seconds =       0.16 minutes
	total time  =         67 seconds =       1.12 minutes

*** tstart() called on n061
*** at Mon Jun  8 15:00:27 2020


  //>>>>>>>>>>>>>>>>>>>>>>>>>>>>>>>>>>>//
  //               DFMP2               //
  //<<<<<<<<<<<<<<<<<<<<<<<<<<<<<<<<<<<//

   => Loading Basis Set <=

    Name: (HEAVY-AUG-CC-PV(T+D)Z AUX)
    Role: RIFIT
    Keyword: DF_BASIS_MP2
    atoms 1, 4, 7, 10     entry C          line   148 file /opt/psi/4/master/share/psi4/basis/heavy-aug-cc-pvtz-ri.gbs 
    atoms 2-3, 5-6, 8, 11 entry H          line    44 file /opt/psi/4/master/share/psi4/basis/heavy-aug-cc-pvtz-ri.gbs 
    atoms 9, 12           entry O          line   264 file /opt/psi/4/master/share/psi4/basis/heavy-aug-cc-pvtz-ri.gbs 

	 --------------------------------------------------------
	                          DF-MP2                         
	      2nd-Order Density-Fitted Moller-Plesset Theory     
	              RMP2 Wavefunction,   4 Threads             
	                                                         
	        Rob Parrish, Justin Turney, Andy Simmonett,      
	           Ed Hohenstein, and C. David Sherrill          
	 --------------------------------------------------------

   => Auxiliary Basis Set <=

  Basis Set: (HEAVY-AUG-CC-PV(T+D)Z AUX)
    Blend: HEAVY-AUG-CC-PVTZ-RI
    Number of shells: 228
    Number of basis function: 816
    Number of Cartesian functions: 1026
    Spherical Harmonics?: true
    Max angular momentum: 4

	 --------------------------------------------------------
	                 NBF =   360, NAUX =   816
	 --------------------------------------------------------
	   CLASS    FOCC     OCC    AOCC    AVIR     VIR    FVIR
	   PAIRS       6      23      17     337     337       0
	 --------------------------------------------------------

	-----------------------------------------------------------
	 ==================> DF-MP2 Energies <==================== 
	-----------------------------------------------------------
	 Reference Energy          =    -304.7355218917240336 [Eh]
	 Singles Energy            =      -0.0000000000000000 [Eh]
	 Same-Spin Energy          =      -0.2854809180869111 [Eh]
	 Opposite-Spin Energy      =      -0.8633079352833080 [Eh]
	 Correlation Energy        =      -1.1487888533702191 [Eh]
	 Total Energy              =    -305.8843107450942398 [Eh]
	-----------------------------------------------------------
	 ================> DF-SCS-MP2 Energies <================== 
	-----------------------------------------------------------
	 SCS Same-Spin Scale       =       0.3333333333333333 [-]
	 SCS Opposite-Spin Scale   =       1.2000000000000000 [-]
	 SCS Same-Spin Energy      =      -0.0951603060289704 [Eh]
	 SCS Opposite-Spin Energy  =      -1.0359695223399694 [Eh]
	 SCS Correlation Energy    =      -1.1311298283689397 [Eh]
	 SCS Total Energy          =    -305.8666517200929889 [Eh]
	-----------------------------------------------------------


*** tstop() called on n061 at Mon Jun  8 15:00:28 2020
Module time:
	user time   =       6.82 seconds =       0.11 minutes
	system time =       0.11 seconds =       0.00 minutes
	total time  =          1 seconds =       0.02 minutes
Total time:
	user time   =     249.71 seconds =       4.16 minutes
	system time =       9.65 seconds =       0.16 minutes
	total time  =         68 seconds =       1.13 minutes

========================OPTAVC-XTPL==========================

MP2/TZ correlation energy -1.148788853370219

=============================================================

    Psi4 stopped on: Monday, 08 June 2020 03:00PM
    Psi4 wall time for execution: 0:01:07.97

*** Psi4 exiting successfully. Buy a developer a beer!
