
    -----------------------------------------------------------------------
          Psi4: An Open-Source Ab Initio Electronic Structure Package
                               Psi4 1.4a2.dev478 

                         Git: Rev {master} f722895 dirty


    R. M. Parrish, L. A. Burns, D. G. A. Smith, A. C. Simmonett,
    A. E. DePrince III, E. G. Hohenstein, U. Bozkaya, A. Yu. Sokolov,
    R. Di Remigio, R. M. Richard, J. F. Gonthier, A. M. James,
    H. R. McAlexander, A. Kumar, M. Saitow, X. Wang, B. P. Pritchard,
    P. Verma, H. F. Schaefer III, K. Patkowski, R. A. King, E. F. Valeev,
    F. A. Evangelista, J. M. Turney, T. D. Crawford, and C. D. Sherrill,
    J. Chem. Theory Comput. 13(7) pp 3185--3197 (2017).
    (doi: 10.1021/acs.jctc.7b00174)


                         Additional Contributions by
    P. Kraus, H. Kruse, M. H. Lechner, M. C. Schieber, R. A. Shaw,
    A. Alenaizan, R. Galvelis, Z. L. Glick, S. Lehtola, and J. P. Misiewicz

    -----------------------------------------------------------------------


    Psi4 started on: Monday, 08 June 2020 03:01PM

    Process ID: 27612
    Host:       n061
    PSIDATADIR: /opt/psi/4/master/share/psi4
    Memory:     500.0 MiB
    Threads:    4
    
  ==> Input File <==

--------------------------------------------------------------------------
set memory 40Gb

molecule {
    C   -1.174143750690   -0.774963495581   -0.000122054786
    H   -1.619161817890   -1.211058947381   -0.891063737386
    H   -1.619236641990   -1.211251475481    0.890686519114
    C   -1.174259935390    0.774782497019    0.000039298714
    H   -1.619408715490    1.210812725519    0.890946481514
    H   -1.619363714790    1.211001803819   -0.890797846286
    C    0.352842188210    0.922279063619    0.000099395014
    H    0.838764338910    1.889781628737    0.000209331708
    O    0.767388801716    0.000221628975   -1.027348508500
    C    0.353007381958   -0.922178757191   -0.000074610926
    H    0.839121192104   -1.892187427222   -0.000156486667
    O    0.767317065528    0.000021742344    1.027403074402
}

set {
    e_convergence 10
    d_convergence 10
    freeze_core True
    basis_guess True
    cc_type conv
    maxiter 300
}

E = energy('mp2/heavy-aug-cc-pV(Q+d)Z')
psi4.print_out("\n========================OPTAVC-XTPL==========================\n\n")
psi4.print_out("MP2/QZ correlation energy {}\n".format(variable("MP2 CORRELATION ENERGY")))
psi4.print_out("SCF/QZ reference energy {}\n".format(variable("CURRENT REFERENCE ENERGY")))
psi4.print_out("\n\n=============================================================\n")

E = energy('mp2/heavy-aug-cc-pV(T+d)Z')
psi4.print_out("\n========================OPTAVC-XTPL==========================\n\n")
psi4.print_out("MP2/TZ correlation energy {}".format(variable("MP2 CORRELATION ENERGY")))
psi4.print_out("\n\n=============================================================\n")
--------------------------------------------------------------------------

Scratch directory: /tmp/

Scratch directory: /tmp/
    SCF Algorithm Type (re)set to DF.

*** tstart() called on n061
*** at Mon Jun  8 15:01:20 2020


  //>>>>>>>>>>>>>>>>>>>>>>>>>>>>>>>>>>>//
  //      Guess SCF, pcseg-0 Basis     //
  //<<<<<<<<<<<<<<<<<<<<<<<<<<<<<<<<<<<//

   => Loading Basis Set <=

    Name: PCSEG-0
    Role: ORBITAL
    Keyword: BASIS
    atoms 1, 4, 7, 10     entry C          line    71 file /opt/psi/4/master/share/psi4/basis/pcseg-0.gbs 
    atoms 2-3, 5-6, 8, 11 entry H          line    13 file /opt/psi/4/master/share/psi4/basis/pcseg-0.gbs 
    atoms 9, 12           entry O          line   103 file /opt/psi/4/master/share/psi4/basis/pcseg-0.gbs 


         ---------------------------------------------------------
                           SCF Castup computation                  
         ---------------------------------------------------------
                                   SCF
               by Justin Turney, Rob Parrish, Andy Simmonett
                          and Daniel G. A. Smith
                              RHF Reference
                        4 Threads,    500 MiB Core
         ---------------------------------------------------------

  ==> Geometry <==

    Molecular point group: c1
    Full point group: C1

    Geometry (in Angstrom), charge = 0, multiplicity = 1:

       Center              X                  Y                   Z               Mass       
    ------------   -----------------  -----------------  -----------------  -----------------
         C           -1.174143750690    -0.774963495581    -0.000122054786    12.000000000000
         H           -1.619161817890    -1.211058947381    -0.891063737386     1.007825032230
         H           -1.619236641990    -1.211251475481     0.890686519114     1.007825032230
         C           -1.174259935390     0.774782497019     0.000039298714    12.000000000000
         H           -1.619408715490     1.210812725519     0.890946481514     1.007825032230
         H           -1.619363714790     1.211001803819    -0.890797846286     1.007825032230
         C            0.352842188210     0.922279063619     0.000099395014    12.000000000000
         H            0.838764338910     1.889781628737     0.000209331708     1.007825032230
         O            0.767388801716     0.000221628975    -1.027348508500    15.994914619570
         C            0.353007381958    -0.922178757191    -0.000074610926    12.000000000000
         H            0.839121192104    -1.892187427222    -0.000156486667     1.007825032230
         O            0.767317065528     0.000021742344     1.027403074402    15.994914619570

  Running in c1 symmetry.

  Rotational constants: A =      0.19854  B =      0.16230  C =      0.14678 [cm^-1]
  Rotational constants: A =   5952.14153  B =   4865.50175  C =   4400.43819 [MHz]
  Nuclear repulsion =  257.023527603055754

  Charge       = 0
  Multiplicity = 1
  Electrons    = 46
  Nalpha       = 23
  Nbeta        = 23

  ==> Algorithm <==

  SCF Algorithm Type is DF.
  DIIS enabled.
  MOM disabled.
  Fractional occupation disabled.
  Guess Type is SAD.
  Energy threshold   = 1.00e-10
  Density threshold  = 1.00e-10
  Integral threshold = 0.00e+00

  ==> Primary Basis <==

  Basis Set: PCSEG-0
    Blend: PCSEG-0
    Number of shells: 42
    Number of basis function: 66
    Number of Cartesian functions: 66
    Spherical Harmonics?: true
    Max angular momentum: 1

   => Loading Basis Set <=

    Name: (PCSEG-0 AUX)
    Role: JKFIT
    Keyword: DF_BASIS_SCF
    atoms 1, 4, 7, 10     entry C          line   198 file /opt/psi/4/master/share/psi4/basis/def2-universal-jkfit.gbs 
    atoms 2-3, 5-6, 8, 11 entry H          line    18 file /opt/psi/4/master/share/psi4/basis/def2-universal-jkfit.gbs 
    atoms 9, 12           entry O          line   318 file /opt/psi/4/master/share/psi4/basis/def2-universal-jkfit.gbs 

  ==> Integral Setup <==

  ==> DiskDFJK: Density-Fitted J/K Matrices <==

    J tasked:                  Yes
    K tasked:                  Yes
    wK tasked:                  No
    OpenMP threads:              4
    Integrals threads:           4
    Memory [MiB]:              375
    Algorithm:                Core
    Integral Cache:           NONE
    Schwarz Cutoff:          1E-12
    Fitting Condition:       1E-10

   => Auxiliary Basis Set <=

  Basis Set: (PCSEG-0 AUX)
    Blend: DEF2-UNIVERSAL-JKFIT
    Number of shells: 186
    Number of basis function: 562
    Number of Cartesian functions: 662
    Spherical Harmonics?: true
    Max angular momentum: 4

  Minimum eigenvalue in the overlap matrix is 1.2853884482E-03.
  Reciprocal condition number of the overlap matrix is 2.1228617066E-04.
    Using symmetric orthogonalization.

  ==> Pre-Iterations <==

  SCF Guess: Superposition of Atomic Densities via on-the-fly atomic UHF (no occupation information).

   -------------------------
    Irrep   Nso     Nmo    
   -------------------------
     A         66      66 
   -------------------------
    Total      66      66
   -------------------------

  ==> Iterations <==

                           Total Energy        Delta E     RMS |[F,P]|

   @DF-RHF iter SAD:  -303.69725830111202   -3.03697e+02   0.00000e+00 
   @DF-RHF iter   1:  -303.56587729155933    1.31381e-01   7.23714e-03 DIIS
   @DF-RHF iter   2:  -303.66485473660242   -9.89774e-02   3.96629e-03 DIIS
   @DF-RHF iter   3:  -303.69043346514070   -2.55787e-02   6.19767e-04 DIIS
   @DF-RHF iter   4:  -303.69161776864644   -1.18430e-03   1.96253e-04 DIIS
   @DF-RHF iter   5:  -303.69171332127752   -9.55526e-05   4.10263e-05 DIIS
   @DF-RHF iter   6:  -303.69172089427730   -7.57300e-06   8.37333e-06 DIIS
   @DF-RHF iter   7:  -303.69172129639202   -4.02115e-07   1.69066e-06 DIIS
   @DF-RHF iter   8:  -303.69172131052966   -1.41376e-08   5.42515e-07 DIIS
   @DF-RHF iter   9:  -303.69172131195279   -1.42313e-09   1.09231e-07 DIIS
   @DF-RHF iter  10:  -303.69172131202890   -7.61133e-11   1.85453e-08 DIIS
   @DF-RHF iter  11:  -303.69172131203140   -2.50111e-12   2.68538e-09 DIIS
   @DF-RHF iter  12:  -303.69172131203129    1.13687e-13   4.13634e-10 DIIS
   @DF-RHF iter  13:  -303.69172131203118    1.13687e-13   1.11778e-10 DIIS
   @DF-RHF iter  14:  -303.69172131203123   -5.68434e-14   3.57305e-11 DIIS
  Energy and wave function converged.


  ==> Post-Iterations <==

    Orbital Energies [Eh]
    ---------------------

    Doubly Occupied:                                                      

       1A    -20.584478     2A    -20.584415     3A    -11.369601  
       4A    -11.369362     5A    -11.256152     6A    -11.255755  
       7A     -1.537537     8A     -1.312946     9A     -1.091784  
      10A     -1.009040    11A     -0.822016    12A     -0.790279  
      13A     -0.768566    14A     -0.680655    15A     -0.662953  
      16A     -0.658495    17A     -0.552521    18A     -0.534505  
      19A     -0.527347    20A     -0.524480    21A     -0.519486  
      22A     -0.467002    23A     -0.443282  

    Virtual:                                                              

      24A      0.203126    25A      0.231187    26A      0.236134  
      27A      0.242341    28A      0.253164    29A      0.267466  
      30A      0.314387    31A      0.350205    32A      0.350958  
      33A      0.382130    34A      0.406835    35A      0.464672  
      36A      0.570318    37A      0.796404    38A      0.808247  
      39A      0.820791    40A      0.925972    41A      0.932854  
      42A      0.947027    43A      0.949943    44A      1.003412  
      45A      1.004982    46A      1.030149    47A      1.061136  
      48A      1.073020    49A      1.134189    50A      1.148991  
      51A      1.170455    52A      1.173942    53A      1.210898  
      54A      1.237899    55A      1.424567    56A      1.454734  
      57A      1.482293    58A      1.522026    59A      1.690751  
      60A      1.705628    61A      1.927968    62A      1.951095  
      63A      2.140087    64A      2.299140    65A      2.375006  
      66A      2.441283  

    Final Occupation by Irrep:
              A 
    DOCC [    23 ]

  @DF-RHF Final Energy:  -303.69172131203123

   => Energetics <=

    Nuclear Repulsion Energy =            257.0235276030557543
    One-Electron Energy =                -922.7851806190460593
    Two-Electron Energy =                 362.0699317039590710
    Total Energy =                       -303.6917213120312340

Computation Completed

  //>>>>>>>>>>>>>>>>>>>>>>>>>>>>>>>>>>>//
  //                SCF                //
  //<<<<<<<<<<<<<<<<<<<<<<<<<<<<<<<<<<<//

   => Loading Basis Set <=

    Name: HEAVY-AUG-CC-PV(Q+D)Z
    Role: ORBITAL
    Keyword: BASIS
    atoms 1, 4, 7, 10     entry C          line   333 file /opt/psi/4/master/share/psi4/basis/heavy-aug-cc-pv_qpd_z.gbs 
    atoms 2-3, 5-6, 8, 11 entry H          line    86 file /opt/psi/4/master/share/psi4/basis/heavy-aug-cc-pv_qpd_z.gbs 
    atoms 9, 12           entry O          line   453 file /opt/psi/4/master/share/psi4/basis/heavy-aug-cc-pv_qpd_z.gbs 


         ---------------------------------------------------------
                                   SCF
               by Justin Turney, Rob Parrish, Andy Simmonett
                          and Daniel G. A. Smith
                              RHF Reference
                        4 Threads,    500 MiB Core
         ---------------------------------------------------------

  ==> Geometry <==

    Molecular point group: c1
    Full point group: C1

    Geometry (in Angstrom), charge = 0, multiplicity = 1:

       Center              X                  Y                   Z               Mass       
    ------------   -----------------  -----------------  -----------------  -----------------
         C           -1.174143750690    -0.774963495581    -0.000122054786    12.000000000000
         H           -1.619161817890    -1.211058947381    -0.891063737386     1.007825032230
         H           -1.619236641990    -1.211251475481     0.890686519114     1.007825032230
         C           -1.174259935390     0.774782497019     0.000039298714    12.000000000000
         H           -1.619408715490     1.210812725519     0.890946481514     1.007825032230
         H           -1.619363714790     1.211001803819    -0.890797846286     1.007825032230
         C            0.352842188210     0.922279063619     0.000099395014    12.000000000000
         H            0.838764338910     1.889781628737     0.000209331708     1.007825032230
         O            0.767388801716     0.000221628975    -1.027348508500    15.994914619570
         C            0.353007381958    -0.922178757191    -0.000074610926    12.000000000000
         H            0.839121192104    -1.892187427222    -0.000156486667     1.007825032230
         O            0.767317065528     0.000021742344     1.027403074402    15.994914619570

  Running in c1 symmetry.

  Rotational constants: A =      0.19854  B =      0.16230  C =      0.14678 [cm^-1]
  Rotational constants: A =   5952.14153  B =   4865.50175  C =   4400.43819 [MHz]
  Nuclear repulsion =  257.023527603055754

  Charge       = 0
  Multiplicity = 1
  Electrons    = 46
  Nalpha       = 23
  Nbeta        = 23

  ==> Algorithm <==

  SCF Algorithm Type is DF.
  DIIS enabled.
  MOM disabled.
  Fractional occupation disabled.
  Guess Type is SAD.
  Energy threshold   = 1.00e-10
  Density threshold  = 1.00e-10
  Integral threshold = 0.00e+00

  ==> Primary Basis <==

  Basis Set: HEAVY-AUG-CC-PV(Q+D)Z
    Blend: HEAVY-AUG-CC-PV(Q+D)Z
    Number of shells: 180
    Number of basis function: 660
    Number of Cartesian functions: 840
    Spherical Harmonics?: true
    Max angular momentum: 4

   => Loading Basis Set <=

    Name: (HEAVY-AUG-CC-PV(Q+D)Z AUX)
    Role: JKFIT
    Keyword: DF_BASIS_SCF
    atoms 1, 4, 7, 10     entry C          line   214 file /opt/psi/4/master/share/psi4/basis/heavy-aug-cc-pvqz-jkfit.gbs 
    atoms 2-3, 5-6, 8, 11 entry H          line   116 file /opt/psi/4/master/share/psi4/basis/heavy-aug-cc-pvqz-jkfit.gbs 
    atoms 9, 12           entry O          line   354 file /opt/psi/4/master/share/psi4/basis/heavy-aug-cc-pvqz-jkfit.gbs 


  Computing basis projection from PCSEG-0 to HEAVY-AUG-CC-PV(Q+D)Z

  ==> Integral Setup <==

  ==> DiskDFJK: Density-Fitted J/K Matrices <==

    J tasked:                  Yes
    K tasked:                  Yes
    wK tasked:                  No
    OpenMP threads:              4
    Integrals threads:           4
    Memory [MiB]:              375
    Algorithm:                Disk
    Integral Cache:           NONE
    Schwarz Cutoff:          1E-12
    Fitting Condition:       1E-10

   => Auxiliary Basis Set <=

  Basis Set: (HEAVY-AUG-CC-PV(Q+D)Z AUX)
    Blend: HEAVY-AUG-CC-PVQZ-JKFIT
    Number of shells: 282
    Number of basis function: 1158
    Number of Cartesian functions: 1584
    Spherical Harmonics?: true
    Max angular momentum: 5

  Minimum eigenvalue in the overlap matrix is 1.0925211810E-06.
  Reciprocal condition number of the overlap matrix is 7.0052602771E-08.
    Using symmetric orthogonalization.

  ==> Pre-Iterations <==

  SCF Guess: Orbitals guess was supplied from a previous computation.

   -------------------------
    Irrep   Nso     Nmo    
   -------------------------
     A        660     660 
   -------------------------
    Total     660     660
   -------------------------

  ==> Iterations <==

                           Total Energy        Delta E     RMS |[F,P]|

   @DF-RHF iter   0:  -304.22244184738958   -3.04222e+02   4.48101e-03 
   @DF-RHF iter   1:  -304.73375419920296   -5.11312e-01   3.36576e-04 DIIS
   @DF-RHF iter   2:  -304.74978480249314   -1.60306e-02   1.53634e-04 DIIS
   @DF-RHF iter   3:  -304.75365491953033   -3.87012e-03   2.81145e-05 DIIS
   @DF-RHF iter   4:  -304.75393186421337   -2.76945e-04   8.45620e-06 DIIS
   @DF-RHF iter   5:  -304.75395414793962   -2.22837e-05   3.57717e-06 DIIS
   @DF-RHF iter   6:  -304.75395795333509   -3.80540e-06   8.40691e-07 DIIS
   @DF-RHF iter   7:  -304.75395826205425   -3.08719e-07   1.79488e-07 DIIS
   @DF-RHF iter   8:  -304.75395827711020   -1.50559e-08   4.58455e-08 DIIS
   @DF-RHF iter   9:  -304.75395827820307   -1.09287e-09   1.49360e-08 DIIS
   @DF-RHF iter  10:  -304.75395827829067   -8.75957e-11   3.82568e-09 DIIS
   @DF-RHF iter  11:  -304.75395827829811   -7.44649e-12   9.80732e-10 DIIS
   @DF-RHF iter  12:  -304.75395827829959   -1.47793e-12   2.82306e-10 DIIS
   @DF-RHF iter  13:  -304.75395827829863    9.66338e-13   4.63873e-11 DIIS
  Energy and wave function converged.


  ==> Post-Iterations <==

    Orbital Energies [Eh]
    ---------------------

    Doubly Occupied:                                                      

       1A    -20.565132     2A    -20.565095     3A    -11.348519  
       4A    -11.348261     5A    -11.236617     6A    -11.236049  
       7A     -1.490814     8A     -1.292192     9A     -1.067408  
      10A     -0.988061    11A     -0.810394    12A     -0.789615  
      13A     -0.746885    14A     -0.672433    15A     -0.651307  
      16A     -0.646540    17A     -0.534479    18A     -0.524531  
      19A     -0.519535    20A     -0.512149    21A     -0.510105  
      22A     -0.459698    23A     -0.433721  

    Virtual:                                                              

      24A      0.041409    25A      0.042847    26A      0.050664  
      27A      0.062625    28A      0.063924    29A      0.079822  
      30A      0.080143    31A      0.083438    32A      0.101427  
      33A      0.110250    34A      0.111675    35A      0.112246  
      36A      0.139340    37A      0.151625    38A      0.166300  
      39A      0.171439    40A      0.178458    41A      0.178826  
      42A      0.188841    43A      0.188973    44A      0.199063  
      45A      0.207280    46A      0.226481    47A      0.227225  
      48A      0.229646    49A      0.257256    50A      0.260936  
      51A      0.270266    52A      0.270861    53A      0.271821  
      54A      0.286588    55A      0.288165    56A      0.291053  
      57A      0.301160    58A      0.316682    59A      0.320019  
      60A      0.325049    61A      0.333740    62A      0.337650  
      63A      0.355671    64A      0.358219    65A      0.369550  
      66A      0.380984    67A      0.388148    68A      0.389559  
      69A      0.391542    70A      0.391725    71A      0.395734  
      72A      0.398864    73A      0.412328    74A      0.420392  
      75A      0.420634    76A      0.440233    77A      0.453078  
      78A      0.456200    79A      0.462812    80A      0.495069  
      81A      0.515260    82A      0.519103    83A      0.522835  
      84A      0.528488    85A      0.550917    86A      0.571962  
      87A      0.574295    88A      0.585438    89A      0.589236  
      90A      0.598574    91A      0.600132    92A      0.613286  
      93A      0.629262    94A      0.641288    95A      0.653843  
      96A      0.659984    97A      0.684939    98A      0.689035  
      99A      0.695825   100A      0.704756   101A      0.716317  
     102A      0.716692   103A      0.732397   104A      0.743521  
     105A      0.757834   106A      0.764571   107A      0.790005  
     108A      0.790387   109A      0.794264   110A      0.795484  
     111A      0.827261   112A      0.832076   113A      0.833154  
     114A      0.849336   115A      0.860832   116A      0.875720  
     117A      0.884578   118A      0.897035   119A      0.920051  
     120A      0.938739   121A      0.947570   122A      0.957854  
     123A      0.961244   124A      0.988465   125A      1.002289  
     126A      1.010156   127A      1.011388   128A      1.016017  
     129A      1.034027   130A      1.035418   131A      1.046731  
     132A      1.062548   133A      1.070063   134A      1.075662  
     135A      1.096406   136A      1.114659   137A      1.128886  
     138A      1.140218   139A      1.155019   140A      1.159079  
     141A      1.160327   142A      1.166436   143A      1.168864  
     144A      1.175945   145A      1.191424   146A      1.198160  
     147A      1.208948   148A      1.222042   149A      1.229480  
     150A      1.234596   151A      1.238473   152A      1.239552  
     153A      1.244997   154A      1.276562   155A      1.276955  
     156A      1.287876   157A      1.288078   158A      1.306580  
     159A      1.314837   160A      1.327815   161A      1.370755  
     162A      1.371159   163A      1.408047   164A      1.409064  
     165A      1.437143   166A      1.442749   167A      1.458931  
     168A      1.469839   169A      1.474927   170A      1.485632  
     171A      1.491294   172A      1.508443   173A      1.525456  
     174A      1.535080   175A      1.544010   176A      1.593360  
     177A      1.594711   178A      1.618354   179A      1.620343  
     180A      1.625436   181A      1.626341   182A      1.647869  
     183A      1.682906   184A      1.687712   185A      1.699184  
     186A      1.723564   187A      1.728499   188A      1.730971  
     189A      1.757343   190A      1.775819   191A      1.776246  
     192A      1.815185   193A      1.865663   194A      1.870808  
     195A      1.886006   196A      1.900905   197A      1.911896  
     198A      1.923924   199A      1.960984   200A      1.968474  
     201A      1.996904   202A      1.997365   203A      2.018260  
     204A      2.026357   205A      2.026611   206A      2.028303  
     207A      2.033014   208A      2.039754   209A      2.044161  
     210A      2.106913   211A      2.116269   212A      2.125174  
     213A      2.141986   214A      2.143574   215A      2.174170  
     216A      2.187987   217A      2.187995   218A      2.209209  
     219A      2.249373   220A      2.258764   221A      2.265938  
     222A      2.293610   223A      2.293941   224A      2.306612  
     225A      2.336083   226A      2.341575   227A      2.359102  
     228A      2.363264   229A      2.366836   230A      2.373454  
     231A      2.389311   232A      2.395746   233A      2.403191  
     234A      2.418829   235A      2.441388   236A      2.442648  
     237A      2.462826   238A      2.485299   239A      2.492496  
     240A      2.517389   241A      2.526278   242A      2.533311  
     243A      2.548446   244A      2.560278   245A      2.584359  
     246A      2.587468   247A      2.621602   248A      2.626492  
     249A      2.633875   250A      2.645102   251A      2.660619  
     252A      2.682619   253A      2.705916   254A      2.714277  
     255A      2.729234   256A      2.730953   257A      2.751345  
     258A      2.763729   259A      2.764162   260A      2.801562  
     261A      2.803285   262A      2.812375   263A      2.832316  
     264A      2.858587   265A      2.866677   266A      2.919084  
     267A      2.935325   268A      2.941020   269A      2.966686  
     270A      2.974942   271A      2.986863   272A      2.987006  
     273A      3.009434   274A      3.031509   275A      3.042171  
     276A      3.048696   277A      3.074766   278A      3.076432  
     279A      3.084517   280A      3.104199   281A      3.110137  
     282A      3.136799   283A      3.143177   284A      3.153465  
     285A      3.170128   286A      3.187633   287A      3.223007  
     288A      3.248156   289A      3.259627   290A      3.268347  
     291A      3.288105   292A      3.293219   293A      3.320095  
     294A      3.362988   295A      3.367451   296A      3.394888  
     297A      3.398233   298A      3.403070   299A      3.431230  
     300A      3.452761   301A      3.464961   302A      3.474593  
     303A      3.501741   304A      3.524188   305A      3.535858  
     306A      3.549327   307A      3.572111   308A      3.598746  
     309A      3.609806   310A      3.618995   311A      3.636428  
     312A      3.661768   313A      3.691626   314A      3.707587  
     315A      3.716820   316A      3.747101   317A      3.752796  
     318A      3.757726   319A      3.805427   320A      3.834999  
     321A      3.843360   322A      3.844514   323A      3.872881  
     324A      3.908337   325A      3.909870   326A      3.917269  
     327A      3.950960   328A      3.962996   329A      3.982213  
     330A      4.040244   331A      4.041384   332A      4.048291  
     333A      4.060880   334A      4.085280   335A      4.099322  
     336A      4.119926   337A      4.134530   338A      4.157475  
     339A      4.173086   340A      4.203695   341A      4.206723  
     342A      4.217838   343A      4.238361   344A      4.244910  
     345A      4.273394   346A      4.292779   347A      4.317317  
     348A      4.331971   349A      4.336524   350A      4.357478  
     351A      4.406400   352A      4.427472   353A      4.439991  
     354A      4.452240   355A      4.460043   356A      4.489485  
     357A      4.497777   358A      4.511866   359A      4.517374  
     360A      4.541400   361A      4.569041   362A      4.594053  
     363A      4.627840   364A      4.652847   365A      4.669951  
     366A      4.691746   367A      4.697504   368A      4.698429  
     369A      4.719003   370A      4.736909   371A      4.749887  
     372A      4.761442   373A      4.787579   374A      4.823702  
     375A      4.824025   376A      4.826363   377A      4.844252  
     378A      4.846448   379A      4.901221   380A      4.942724  
     381A      4.977202   382A      5.000629   383A      5.000864  
     384A      5.021528   385A      5.058931   386A      5.122297  
     387A      5.155122   388A      5.164688   389A      5.183524  
     390A      5.237185   391A      5.244646   392A      5.253237  
     393A      5.276995   394A      5.289937   395A      5.305071  
     396A      5.342672   397A      5.358476   398A      5.375012  
     399A      5.407379   400A      5.489424   401A      5.513357  
     402A      5.555331   403A      5.582393   404A      5.627150  
     405A      5.646480   406A      5.649703   407A      5.669213  
     408A      5.782472   409A      5.821668   410A      5.829378  
     411A      5.837316   412A      5.898133   413A      5.973255  
     414A      6.030996   415A      6.102359   416A      6.138236  
     417A      6.193089   418A      6.214578   419A      6.227629  
     420A      6.237277   421A      6.292643   422A      6.335424  
     423A      6.338115   424A      6.346160   425A      6.367015  
     426A      6.398568   427A      6.417804   428A      6.459243  
     429A      6.490887   430A      6.495899   431A      6.511621  
     432A      6.520273   433A      6.531587   434A      6.577373  
     435A      6.586660   436A      6.612754   437A      6.639069  
     438A      6.644156   439A      6.656810   440A      6.680064  
     441A      6.699632   442A      6.701021   443A      6.717496  
     444A      6.749163   445A      6.766711   446A      6.782197  
     447A      6.814862   448A      6.820164   449A      6.856010  
     450A      6.885543   451A      6.912705   452A      6.915939  
     453A      6.921734   454A      6.925592   455A      6.938360  
     456A      6.976790   457A      6.988472   458A      7.011508  
     459A      7.040913   460A      7.092458   461A      7.101390  
     462A      7.104730   463A      7.135282   464A      7.153665  
     465A      7.180050   466A      7.194452   467A      7.195172  
     468A      7.219158   469A      7.222455   470A      7.249636  
     471A      7.277434   472A      7.304549   473A      7.351941  
     474A      7.360612   475A      7.366506   476A      7.418530  
     477A      7.430256   478A      7.437739   479A      7.469244  
     480A      7.528915   481A      7.541388   482A      7.584028  
     483A      7.600243   484A      7.605374   485A      7.636310  
     486A      7.707491   487A      7.730641   488A      7.742422  
     489A      7.751922   490A      7.783174   491A      7.802828  
     492A      7.833376   493A      7.842129   494A      7.843327  
     495A      7.917683   496A      7.936764   497A      7.943040  
     498A      7.987512   499A      7.996238   500A      8.014793  
     501A      8.015111   502A      8.042014   503A      8.084343  
     504A      8.105950   505A      8.146724   506A      8.155493  
     507A      8.191404   508A      8.193739   509A      8.322351  
     510A      8.326688   511A      8.334627   512A      8.352317  
     513A      8.378232   514A      8.408719   515A      8.412935  
     516A      8.479220   517A      8.497342   518A      8.497991  
     519A      8.532337   520A      8.552136   521A      8.559758  
     522A      8.587060   523A      8.610435   524A      8.611182  
     525A      8.650949   526A      8.687540   527A      8.706831  
     528A      8.717242   529A      8.763024   530A      8.815657  
     531A      8.826723   532A      8.838493   533A      8.841397  
     534A      8.841656   535A      8.879851   536A      8.900199  
     537A      8.904768   538A      8.937297   539A      8.957660  
     540A      8.993685   541A      9.016596   542A      9.028184  
     543A      9.033730   544A      9.048920   545A      9.056523  
     546A      9.086054   547A      9.109931   548A      9.117990  
     549A      9.171836   550A      9.176683   551A      9.190139  
     552A      9.234417   553A      9.248663   554A      9.315212  
     555A      9.345004   556A      9.351257   557A      9.351614  
     558A      9.366203   559A      9.400915   560A      9.454278  
     561A      9.498031   562A      9.513791   563A      9.525946  
     564A      9.557054   565A      9.648953   566A      9.659059  
     567A      9.727715   568A      9.756069   569A      9.769650  
     570A      9.791666   571A      9.834494   572A      9.899882  
     573A      9.920392   574A      9.933927   575A      9.959368  
     576A     10.068773   577A     10.117390   578A     10.233031  
     579A     10.244763   580A     10.256564   581A     10.294905  
     582A     10.418649   583A     10.477984   584A     10.509820  
     585A     10.512125   586A     10.599958   587A     10.629082  
     588A     10.648443   589A     10.783645   590A     10.794064  
     591A     10.823262   592A     10.826084   593A     10.971468  
     594A     11.000961   595A     11.064125   596A     11.073208  
     597A     11.101693   598A     11.110639   599A     11.131215  
     600A     11.153113   601A     11.162714   602A     11.210378  
     603A     11.226476   604A     11.251776   605A     11.334542  
     606A     11.386450   607A     11.451570   608A     11.455225  
     609A     11.494929   610A     11.498904   611A     11.508972  
     612A     11.542856   613A     11.620663   614A     11.645145  
     615A     11.722264   616A     11.813900   617A     11.820499  
     618A     11.847703   619A     11.885328   620A     11.908724  
     621A     12.198742   622A     12.254001   623A     12.317081  
     624A     12.378579   625A     12.642654   626A     12.651420  
     627A     12.825247   628A     12.870011   629A     12.966461  
     630A     13.028278   631A     13.075822   632A     13.076247  
     633A     13.183297   634A     13.239224   635A     13.255072  
     636A     13.355836   637A     13.357599   638A     13.386497  
     639A     13.422481   640A     13.512709   641A     13.527026  
     642A     13.533826   643A     13.718338   644A     13.737483  
     645A     13.789291   646A     13.813620   647A     13.848986  
     648A     13.909082   649A     13.969176   650A     13.979453  
     651A     14.124697   652A     14.155268   653A     14.690474  
     654A     14.885282   655A     27.262452   656A     27.856167  
     657A     28.044109   658A     28.610925   659A     44.797240  
     660A     45.696584  

    Final Occupation by Irrep:
              A 
    DOCC [    23 ]

  @DF-RHF Final Energy:  -304.75395827829863

   => Energetics <=

    Nuclear Repulsion Energy =            257.0235276030557543
    One-Electron Energy =                -925.6558922381000230
    Two-Electron Energy =                 363.8784063567456428
    Total Energy =                       -304.7539582782986258

Computation Completed


Properties will be evaluated at   0.000000,   0.000000,   0.000000 [a0]

Properties computed using the SCF density matrix

  Nuclear Dipole Moment: [e a0]
     X:    -4.4918      Y:    -0.0027      Z:    -0.0002

  Electronic Dipole Moment: [e a0]
     X:     3.7202      Y:     0.0031      Z:     0.0001

  Dipole Moment: [e a0]
     X:    -0.7716      Y:     0.0003      Z:    -0.0000     Total:     0.7716

  Dipole Moment: [D]
     X:    -1.9612      Y:     0.0008      Z:    -0.0001     Total:     1.9612


*** tstop() called on n061 at Mon Jun  8 15:01:58 2020
Module time:
	user time   =     136.80 seconds =       2.28 minutes
	system time =       6.28 seconds =       0.10 minutes
	total time  =         38 seconds =       0.63 minutes
Total time:
	user time   =     136.80 seconds =       2.28 minutes
	system time =       6.28 seconds =       0.10 minutes
	total time  =         38 seconds =       0.63 minutes

*** tstart() called on n061
*** at Mon Jun  8 15:01:58 2020


  //>>>>>>>>>>>>>>>>>>>>>>>>>>>>>>>>>>>//
  //               DFMP2               //
  //<<<<<<<<<<<<<<<<<<<<<<<<<<<<<<<<<<<//

   => Loading Basis Set <=

    Name: (HEAVY-AUG-CC-PV(Q+D)Z AUX)
    Role: RIFIT
    Keyword: DF_BASIS_MP2
    atoms 1, 4, 7, 10     entry C          line   180 file /opt/psi/4/master/share/psi4/basis/heavy-aug-cc-pvqz-ri.gbs 
    atoms 2-3, 5-6, 8, 11 entry H          line    44 file /opt/psi/4/master/share/psi4/basis/heavy-aug-cc-pvqz-ri.gbs 
    atoms 9, 12           entry O          line   328 file /opt/psi/4/master/share/psi4/basis/heavy-aug-cc-pvqz-ri.gbs 

	 --------------------------------------------------------
	                          DF-MP2                         
	      2nd-Order Density-Fitted Moller-Plesset Theory     
	              RMP2 Wavefunction,   4 Threads             
	                                                         
	        Rob Parrish, Justin Turney, Andy Simmonett,      
	           Ed Hohenstein, and C. David Sherrill          
	 --------------------------------------------------------

   => Auxiliary Basis Set <=

  Basis Set: (HEAVY-AUG-CC-PV(Q+D)Z AUX)
    Blend: HEAVY-AUG-CC-PVQZ-RI
    Number of shells: 306
    Number of basis function: 1338
    Number of Cartesian functions: 1842
    Spherical Harmonics?: true
    Max angular momentum: 5

	 --------------------------------------------------------
	                 NBF =   660, NAUX =  1338
	 --------------------------------------------------------
	   CLASS    FOCC     OCC    AOCC    AVIR     VIR    FVIR
	   PAIRS       6      23      17     637     637       0
	 --------------------------------------------------------

	-----------------------------------------------------------
	 ==================> DF-MP2 Energies <==================== 
	-----------------------------------------------------------
	 Reference Energy          =    -304.7539582782986258 [Eh]
	 Singles Energy            =      -0.0000000000000000 [Eh]
	 Same-Spin Energy          =      -0.2941192782982717 [Eh]
	 Opposite-Spin Energy      =      -0.9238195119105425 [Eh]
	 Correlation Energy        =      -1.2179387902088141 [Eh]
	 Total Energy              =    -305.9718970685074169 [Eh]
	-----------------------------------------------------------
	 ================> DF-SCS-MP2 Energies <================== 
	-----------------------------------------------------------
	 SCS Same-Spin Scale       =       0.3333333333333333 [-]
	 SCS Opposite-Spin Scale   =       1.2000000000000000 [-]
	 SCS Same-Spin Energy      =      -0.0980397594327572 [Eh]
	 SCS Opposite-Spin Energy  =      -1.1085834142926509 [Eh]
	 SCS Correlation Energy    =      -1.2066231737254083 [Eh]
	 SCS Total Energy          =    -305.9605814520240301 [Eh]
	-----------------------------------------------------------


*** tstop() called on n061 at Mon Jun  8 15:02:06 2020
Module time:
	user time   =      28.40 seconds =       0.47 minutes
	system time =       0.35 seconds =       0.01 minutes
	total time  =          8 seconds =       0.13 minutes
Total time:
	user time   =     165.20 seconds =       2.75 minutes
	system time =       6.63 seconds =       0.11 minutes
	total time  =         46 seconds =       0.77 minutes

========================OPTAVC-XTPL==========================

MP2/QZ correlation energy -1.2179387902088141
SCF/QZ reference energy -304.7539582782986


=============================================================

Scratch directory: /tmp/

Scratch directory: /tmp/
    SCF Algorithm Type (re)set to DF.

*** tstart() called on n061
*** at Mon Jun  8 15:02:06 2020


  //>>>>>>>>>>>>>>>>>>>>>>>>>>>>>>>>>>>//
  //      Guess SCF, pcseg-0 Basis     //
  //<<<<<<<<<<<<<<<<<<<<<<<<<<<<<<<<<<<//

   => Loading Basis Set <=

    Name: PCSEG-0
    Role: ORBITAL
    Keyword: BASIS
    atoms 1, 4, 7, 10     entry C          line    71 file /opt/psi/4/master/share/psi4/basis/pcseg-0.gbs 
    atoms 2-3, 5-6, 8, 11 entry H          line    13 file /opt/psi/4/master/share/psi4/basis/pcseg-0.gbs 
    atoms 9, 12           entry O          line   103 file /opt/psi/4/master/share/psi4/basis/pcseg-0.gbs 


         ---------------------------------------------------------
                           SCF Castup computation                  
         ---------------------------------------------------------
                                   SCF
               by Justin Turney, Rob Parrish, Andy Simmonett
                          and Daniel G. A. Smith
                              RHF Reference
                        4 Threads,    500 MiB Core
         ---------------------------------------------------------

  ==> Geometry <==

    Molecular point group: c1
    Full point group: C1

    Geometry (in Angstrom), charge = 0, multiplicity = 1:

       Center              X                  Y                   Z               Mass       
    ------------   -----------------  -----------------  -----------------  -----------------
         C           -1.174143750690    -0.774963495581    -0.000122054786    12.000000000000
         H           -1.619161817890    -1.211058947381    -0.891063737386     1.007825032230
         H           -1.619236641990    -1.211251475481     0.890686519114     1.007825032230
         C           -1.174259935390     0.774782497019     0.000039298714    12.000000000000
         H           -1.619408715490     1.210812725519     0.890946481514     1.007825032230
         H           -1.619363714790     1.211001803819    -0.890797846286     1.007825032230
         C            0.352842188210     0.922279063619     0.000099395014    12.000000000000
         H            0.838764338910     1.889781628737     0.000209331708     1.007825032230
         O            0.767388801716     0.000221628975    -1.027348508500    15.994914619570
         C            0.353007381958    -0.922178757191    -0.000074610926    12.000000000000
         H            0.839121192104    -1.892187427222    -0.000156486667     1.007825032230
         O            0.767317065528     0.000021742344     1.027403074402    15.994914619570

  Running in c1 symmetry.

  Rotational constants: A =      0.19854  B =      0.16230  C =      0.14678 [cm^-1]
  Rotational constants: A =   5952.14153  B =   4865.50175  C =   4400.43819 [MHz]
  Nuclear repulsion =  257.023527603055754

  Charge       = 0
  Multiplicity = 1
  Electrons    = 46
  Nalpha       = 23
  Nbeta        = 23

  ==> Algorithm <==

  SCF Algorithm Type is DF.
  DIIS enabled.
  MOM disabled.
  Fractional occupation disabled.
  Guess Type is SAD.
  Energy threshold   = 1.00e-10
  Density threshold  = 1.00e-10
  Integral threshold = 0.00e+00

  ==> Primary Basis <==

  Basis Set: PCSEG-0
    Blend: PCSEG-0
    Number of shells: 42
    Number of basis function: 66
    Number of Cartesian functions: 66
    Spherical Harmonics?: true
    Max angular momentum: 1

   => Loading Basis Set <=

    Name: (PCSEG-0 AUX)
    Role: JKFIT
    Keyword: DF_BASIS_SCF
    atoms 1, 4, 7, 10     entry C          line   198 file /opt/psi/4/master/share/psi4/basis/def2-universal-jkfit.gbs 
    atoms 2-3, 5-6, 8, 11 entry H          line    18 file /opt/psi/4/master/share/psi4/basis/def2-universal-jkfit.gbs 
    atoms 9, 12           entry O          line   318 file /opt/psi/4/master/share/psi4/basis/def2-universal-jkfit.gbs 

  ==> Integral Setup <==

  ==> DiskDFJK: Density-Fitted J/K Matrices <==

    J tasked:                  Yes
    K tasked:                  Yes
    wK tasked:                  No
    OpenMP threads:              4
    Integrals threads:           4
    Memory [MiB]:              375
    Algorithm:                Core
    Integral Cache:           NONE
    Schwarz Cutoff:          1E-12
    Fitting Condition:       1E-10

   => Auxiliary Basis Set <=

  Basis Set: (PCSEG-0 AUX)
    Blend: DEF2-UNIVERSAL-JKFIT
    Number of shells: 186
    Number of basis function: 562
    Number of Cartesian functions: 662
    Spherical Harmonics?: true
    Max angular momentum: 4

  Minimum eigenvalue in the overlap matrix is 1.2853884482E-03.
  Reciprocal condition number of the overlap matrix is 2.1228617066E-04.
    Using symmetric orthogonalization.

  ==> Pre-Iterations <==

  SCF Guess: Superposition of Atomic Densities via on-the-fly atomic UHF (no occupation information).

   -------------------------
    Irrep   Nso     Nmo    
   -------------------------
     A         66      66 
   -------------------------
    Total      66      66
   -------------------------

  ==> Iterations <==

                           Total Energy        Delta E     RMS |[F,P]|

   @DF-RHF iter SAD:  -303.69725830121820   -3.03697e+02   0.00000e+00 
   @DF-RHF iter   1:  -303.56587729167131    1.31381e-01   7.23714e-03 DIIS
   @DF-RHF iter   2:  -303.66485473671219   -9.89774e-02   3.96629e-03 DIIS
   @DF-RHF iter   3:  -303.69043346525035   -2.55787e-02   6.19767e-04 DIIS
   @DF-RHF iter   4:  -303.69161776875563   -1.18430e-03   1.96253e-04 DIIS
   @DF-RHF iter   5:  -303.69171332138689   -9.55526e-05   4.10263e-05 DIIS
   @DF-RHF iter   6:  -303.69172089438649   -7.57300e-06   8.37333e-06 DIIS
   @DF-RHF iter   7:  -303.69172129650127   -4.02115e-07   1.69066e-06 DIIS
   @DF-RHF iter   8:  -303.69172131063908   -1.41378e-08   5.42515e-07 DIIS
   @DF-RHF iter   9:  -303.69172131206221   -1.42313e-09   1.09231e-07 DIIS
   @DF-RHF iter  10:  -303.69172131213821   -7.59997e-11   1.85453e-08 DIIS
   @DF-RHF iter  11:  -303.69172131214032   -2.10321e-12   2.68538e-09 DIIS
   @DF-RHF iter  12:  -303.69172131214032    0.00000e+00   4.13635e-10 DIIS
   @DF-RHF iter  13:  -303.69172131214049   -1.70530e-13   1.11778e-10 DIIS
   @DF-RHF iter  14:  -303.69172131214043    5.68434e-14   3.57299e-11 DIIS
  Energy and wave function converged.


  ==> Post-Iterations <==

    Orbital Energies [Eh]
    ---------------------

    Doubly Occupied:                                                      

       1A    -20.584478     2A    -20.584415     3A    -11.369601  
       4A    -11.369362     5A    -11.256152     6A    -11.255755  
       7A     -1.537537     8A     -1.312946     9A     -1.091784  
      10A     -1.009040    11A     -0.822016    12A     -0.790279  
      13A     -0.768566    14A     -0.680655    15A     -0.662953  
      16A     -0.658495    17A     -0.552521    18A     -0.534505  
      19A     -0.527347    20A     -0.524480    21A     -0.519486  
      22A     -0.467002    23A     -0.443282  

    Virtual:                                                              

      24A      0.203126    25A      0.231187    26A      0.236134  
      27A      0.242341    28A      0.253164    29A      0.267466  
      30A      0.314387    31A      0.350205    32A      0.350958  
      33A      0.382130    34A      0.406835    35A      0.464672  
      36A      0.570318    37A      0.796404    38A      0.808247  
      39A      0.820791    40A      0.925972    41A      0.932854  
      42A      0.947027    43A      0.949943    44A      1.003412  
      45A      1.004982    46A      1.030149    47A      1.061136  
      48A      1.073020    49A      1.134189    50A      1.148991  
      51A      1.170455    52A      1.173942    53A      1.210898  
      54A      1.237899    55A      1.424567    56A      1.454734  
      57A      1.482293    58A      1.522026    59A      1.690751  
      60A      1.705628    61A      1.927968    62A      1.951095  
      63A      2.140087    64A      2.299140    65A      2.375006  
      66A      2.441283  

    Final Occupation by Irrep:
              A 
    DOCC [    23 ]

  @DF-RHF Final Energy:  -303.69172131214043

   => Energetics <=

    Nuclear Repulsion Energy =            257.0235276030557543
    One-Electron Energy =                -922.7851806190610660
    Two-Electron Energy =                 362.0699317038648815
    Total Energy =                       -303.6917213121404302

Computation Completed

  //>>>>>>>>>>>>>>>>>>>>>>>>>>>>>>>>>>>//
  //                SCF                //
  //<<<<<<<<<<<<<<<<<<<<<<<<<<<<<<<<<<<//

   => Loading Basis Set <=

    Name: HEAVY-AUG-CC-PV(T+D)Z
    Role: ORBITAL
    Keyword: BASIS
    atoms 1, 4, 7, 10     entry C          line   273 file /opt/psi/4/master/share/psi4/basis/heavy-aug-cc-pv_tpd_z.gbs 
    atoms 2-3, 5-6, 8, 11 entry H          line    86 file /opt/psi/4/master/share/psi4/basis/heavy-aug-cc-pv_tpd_z.gbs 
    atoms 9, 12           entry O          line   365 file /opt/psi/4/master/share/psi4/basis/heavy-aug-cc-pv_tpd_z.gbs 


         ---------------------------------------------------------
                                   SCF
               by Justin Turney, Rob Parrish, Andy Simmonett
                          and Daniel G. A. Smith
                              RHF Reference
                        4 Threads,    500 MiB Core
         ---------------------------------------------------------

  ==> Geometry <==

    Molecular point group: c1
    Full point group: C1

    Geometry (in Angstrom), charge = 0, multiplicity = 1:

       Center              X                  Y                   Z               Mass       
    ------------   -----------------  -----------------  -----------------  -----------------
         C           -1.174143750690    -0.774963495581    -0.000122054786    12.000000000000
         H           -1.619161817890    -1.211058947381    -0.891063737386     1.007825032230
         H           -1.619236641990    -1.211251475481     0.890686519114     1.007825032230
         C           -1.174259935390     0.774782497019     0.000039298714    12.000000000000
         H           -1.619408715490     1.210812725519     0.890946481514     1.007825032230
         H           -1.619363714790     1.211001803819    -0.890797846286     1.007825032230
         C            0.352842188210     0.922279063619     0.000099395014    12.000000000000
         H            0.838764338910     1.889781628737     0.000209331708     1.007825032230
         O            0.767388801716     0.000221628975    -1.027348508500    15.994914619570
         C            0.353007381958    -0.922178757191    -0.000074610926    12.000000000000
         H            0.839121192104    -1.892187427222    -0.000156486667     1.007825032230
         O            0.767317065528     0.000021742344     1.027403074402    15.994914619570

  Running in c1 symmetry.

  Rotational constants: A =      0.19854  B =      0.16230  C =      0.14678 [cm^-1]
  Rotational constants: A =   5952.14153  B =   4865.50175  C =   4400.43819 [MHz]
  Nuclear repulsion =  257.023527603055754

  Charge       = 0
  Multiplicity = 1
  Electrons    = 46
  Nalpha       = 23
  Nbeta        = 23

  ==> Algorithm <==

  SCF Algorithm Type is DF.
  DIIS enabled.
  MOM disabled.
  Fractional occupation disabled.
  Guess Type is SAD.
  Energy threshold   = 1.00e-10
  Density threshold  = 1.00e-10
  Integral threshold = 0.00e+00

  ==> Primary Basis <==

  Basis Set: HEAVY-AUG-CC-PV(T+D)Z
    Blend: HEAVY-AUG-CC-PV(T+D)Z
    Number of shells: 120
    Number of basis function: 360
    Number of Cartesian functions: 420
    Spherical Harmonics?: true
    Max angular momentum: 3

   => Loading Basis Set <=

    Name: (HEAVY-AUG-CC-PV(T+D)Z AUX)
    Role: JKFIT
    Keyword: DF_BASIS_SCF
    atoms 1, 4, 7, 10     entry C          line   200 file /opt/psi/4/master/share/psi4/basis/heavy-aug-cc-pvtz-jkfit.gbs 
    atoms 2-3, 5-6, 8, 11 entry H          line   116 file /opt/psi/4/master/share/psi4/basis/heavy-aug-cc-pvtz-jkfit.gbs 
    atoms 9, 12           entry O          line   324 file /opt/psi/4/master/share/psi4/basis/heavy-aug-cc-pvtz-jkfit.gbs 


  Computing basis projection from PCSEG-0 to HEAVY-AUG-CC-PV(T+D)Z

  ==> Integral Setup <==

  ==> DiskDFJK: Density-Fitted J/K Matrices <==

    J tasked:                  Yes
    K tasked:                  Yes
    wK tasked:                  No
    OpenMP threads:              4
    Integrals threads:           4
    Memory [MiB]:              375
    Algorithm:                Disk
    Integral Cache:           NONE
    Schwarz Cutoff:          1E-12
    Fitting Condition:       1E-10

   => Auxiliary Basis Set <=

  Basis Set: (HEAVY-AUG-CC-PV(T+D)Z AUX)
    Blend: HEAVY-AUG-CC-PVTZ-JKFIT
    Number of shells: 240
    Number of basis function: 804
    Number of Cartesian functions: 996
    Spherical Harmonics?: true
    Max angular momentum: 4

  Minimum eigenvalue in the overlap matrix is 5.5187410494E-06.
  Reciprocal condition number of the overlap matrix is 4.0342835523E-07.
    Using symmetric orthogonalization.

  ==> Pre-Iterations <==

  SCF Guess: Orbitals guess was supplied from a previous computation.

   -------------------------
    Irrep   Nso     Nmo    
   -------------------------
     A        360     360 
   -------------------------
    Total     360     360
   -------------------------

  ==> Iterations <==

                           Total Energy        Delta E     RMS |[F,P]|

   @DF-RHF iter   0:  -304.36284122717865   -3.04363e+02   4.15918e-03 
   @DF-RHF iter   1:  -304.71640478028513   -3.53564e-01   5.72481e-04 DIIS
   @DF-RHF iter   2:  -304.73156624765898   -1.51615e-02   2.71738e-04 DIIS
   @DF-RHF iter   3:  -304.73525673961058   -3.69049e-03   4.87238e-05 DIIS
   @DF-RHF iter   4:  -304.73552058714813   -2.63848e-04   1.57916e-05 DIIS
   @DF-RHF iter   5:  -304.73554163793523   -2.10508e-05   6.25238e-06 DIIS
   @DF-RHF iter   6:  -304.73554553623796   -3.89830e-06   1.42027e-06 DIIS
   @DF-RHF iter   7:  -304.73554580169315   -2.65455e-07   3.12851e-07 DIIS
   @DF-RHF iter   8:  -304.73554581592157   -1.42284e-08   7.99596e-08 DIIS
   @DF-RHF iter   9:  -304.73554581685801   -9.36438e-10   2.59747e-08 DIIS
   @DF-RHF iter  10:  -304.73554581694378   -8.57767e-11   6.47725e-09 DIIS
   @DF-RHF iter  11:  -304.73554581695026   -6.48015e-12   1.69194e-09 DIIS
   @DF-RHF iter  12:  -304.73554581695043   -1.70530e-13   4.79075e-10 DIIS
   @DF-RHF iter  13:  -304.73554581695066   -2.27374e-13   7.67179e-11 DIIS
  Energy and wave function converged.


  ==> Post-Iterations <==

    Orbital Energies [Eh]
    ---------------------

    Doubly Occupied:                                                      

       1A    -20.568078     2A    -20.568042     3A    -11.349621  
       4A    -11.349365     5A    -11.237699     6A    -11.237133  
       7A     -1.491620     8A     -1.292989     9A     -1.067658  
      10A     -0.988343    11A     -0.810489    12A     -0.789775  
      13A     -0.746841    14A     -0.672334    15A     -0.651327  
      16A     -0.646391    17A     -0.534404    18A     -0.524375  
      19A     -0.519404    20A     -0.512075    21A     -0.509907  
      22A     -0.459434    23A     -0.433520  

    Virtual:                                                              

      24A      0.050332    25A      0.050957    26A      0.059703  
      27A      0.072057    28A      0.073420    29A      0.092448  
      30A      0.093545    31A      0.096704    32A      0.116619  
      33A      0.126307    34A      0.127402    35A      0.130074  
      36A      0.162102    37A      0.176031    38A      0.195280  
      39A      0.204148    40A      0.206508    41A      0.214122  
      42A      0.220414    43A      0.228361    44A      0.233848  
      45A      0.249406    46A      0.268468    47A      0.268611  
      48A      0.277182    49A      0.295373    50A      0.300769  
      51A      0.312911    52A      0.331200    53A      0.335325  
      54A      0.341778    55A      0.347840    56A      0.356287  
      57A      0.356988    58A      0.362632    59A      0.374789  
      60A      0.397683    61A      0.404435    62A      0.412747  
      63A      0.421367    64A      0.432410    65A      0.446441  
      66A      0.457863    67A      0.465020    68A      0.485327  
      69A      0.492958    70A      0.503885    71A      0.510865  
      72A      0.516691    73A      0.519802    74A      0.527009  
      75A      0.528732    76A      0.543687    77A      0.545862  
      78A      0.580878    79A      0.592282    80A      0.608228  
      81A      0.613223    82A      0.620779    83A      0.653734  
      84A      0.658703    85A      0.673565    86A      0.722028  
      87A      0.735820    88A      0.747615    89A      0.753853  
      90A      0.770313    91A      0.780951    92A      0.791323  
      93A      0.797167    94A      0.815708    95A      0.818609  
      96A      0.828060    97A      0.843988    98A      0.877772  
      99A      0.891547   100A      0.926903   101A      0.928754  
     102A      0.938701   103A      0.946026   104A      0.970404  
     105A      0.985556   106A      0.998708   107A      1.032137  
     108A      1.037131   109A      1.038503   110A      1.060397  
     111A      1.082268   112A      1.096448   113A      1.114118  
     114A      1.120849   115A      1.138307   116A      1.160785  
     117A      1.185573   118A      1.222902   119A      1.247389  
     120A      1.251894   121A      1.261225   122A      1.283321  
     123A      1.321669   124A      1.329924   125A      1.335780  
     126A      1.352923   127A      1.373561   128A      1.383879  
     129A      1.398660   130A      1.403618   131A      1.415147  
     132A      1.446521   133A      1.447638   134A      1.458077  
     135A      1.483365   136A      1.499169   137A      1.506003  
     138A      1.528830   139A      1.546541   140A      1.560477  
     141A      1.581821   142A      1.586332   143A      1.586922  
     144A      1.589275   145A      1.600421   146A      1.654338  
     147A      1.656824   148A      1.670631   149A      1.677181  
     150A      1.683963   151A      1.698652   152A      1.707868  
     153A      1.715767   154A      1.731692   155A      1.735549  
     156A      1.750556   157A      1.752226   158A      1.791795  
     159A      1.799847   160A      1.806977   161A      1.822852  
     162A      1.901761   163A      1.901979   164A      1.930577  
     165A      1.939495   166A      1.950344   167A      1.984910  
     168A      1.990775   169A      2.003198   170A      2.007842  
     171A      2.026995   172A      2.046469   173A      2.055602  
     174A      2.058991   175A      2.150515   176A      2.151679  
     177A      2.209438   178A      2.252162   179A      2.300624  
     180A      2.333524   181A      2.392374   182A      2.401526  
     183A      2.419773   184A      2.443716   185A      2.450843  
     186A      2.472280   187A      2.504242   188A      2.508308  
     189A      2.540771   190A      2.579707   191A      2.628496  
     192A      2.646296   193A      2.682613   194A      2.685982  
     195A      2.723713   196A      2.769219   197A      2.787697  
     198A      2.875417   199A      2.875997   200A      2.891131  
     201A      2.914422   202A      2.921411   203A      2.953987  
     204A      2.959383   205A      2.963882   206A      3.076668  
     207A      3.098092   208A      3.119023   209A      3.128042  
     210A      3.180786   211A      3.186732   212A      3.204977  
     213A      3.215626   214A      3.240421   215A      3.261243  
     216A      3.306460   217A      3.332371   218A      3.408714  
     219A      3.412121   220A      3.414631   221A      3.434672  
     222A      3.441044   223A      3.471868   224A      3.484908  
     225A      3.500928   226A      3.524533   227A      3.538607  
     228A      3.602484   229A      3.627120   230A      3.630765  
     231A      3.667150   232A      3.682456   233A      3.695691  
     234A      3.706400   235A      3.728251   236A      3.730678  
     237A      3.749322   238A      3.816156   239A      3.832773  
     240A      3.843125   241A      3.866212   242A      3.873826  
     243A      3.926593   244A      3.952173   245A      3.960191  
     246A      3.961434   247A      3.964737   248A      4.003965  
     249A      4.018678   250A      4.049560   251A      4.053577  
     252A      4.073924   253A      4.105530   254A      4.112114  
     255A      4.145229   256A      4.163133   257A      4.169916  
     258A      4.181542   259A      4.186053   260A      4.212441  
     261A      4.235090   262A      4.245375   263A      4.258512  
     264A      4.263765   265A      4.267906   266A      4.316030  
     267A      4.344202   268A      4.365945   269A      4.425799  
     270A      4.472049   271A      4.479961   272A      4.482175  
     273A      4.495875   274A      4.511956   275A      4.526822  
     276A      4.552387   277A      4.583717   278A      4.638587  
     279A      4.688504   280A      4.689245   281A      4.702743  
     282A      4.706568   283A      4.731340   284A      4.744001  
     285A      4.756292   286A      4.805912   287A      4.820830  
     288A      4.821839   289A      4.838508   290A      4.885898  
     291A      4.907406   292A      4.958686   293A      4.964037  
     294A      4.965792   295A      5.096373   296A      5.118687  
     297A      5.125404   298A      5.190647   299A      5.194040  
     300A      5.238773   301A      5.266373   302A      5.282273  
     303A      5.395300   304A      5.418695   305A      5.437761  
     306A      5.465418   307A      5.473082   308A      5.582338  
     309A      5.583189   310A      5.596736   311A      5.653260  
     312A      5.704993   313A      5.713301   314A      5.719525  
     315A      5.862254   316A      5.868576   317A      5.900157  
     318A      5.927333   319A      6.060535   320A      6.123137  
     321A      6.140952   322A      6.206105   323A      6.242854  
     324A      6.280977   325A      6.284529   326A      6.349163  
     327A      6.383941   328A      6.493126   329A      6.559773  
     330A      6.901587   331A      6.901645   332A      6.939478  
     333A      6.962736   334A      6.996157   335A      7.024692  
     336A      7.104633   337A      7.128580   338A      7.172523  
     339A      7.189480   340A      7.226458   341A      7.238158  
     342A      7.389663   343A      7.488448   344A      7.587947  
     345A      7.609099   346A      7.634734   347A      7.736883  
     348A      7.793359   349A      7.821029   350A      7.910805  
     351A      8.038304   352A      8.194652   353A      8.219598  
     354A      8.226968   355A     14.244979   356A     15.441190  
     357A     15.555057   358A     15.868972   359A     17.395776  
     360A     18.710393  

    Final Occupation by Irrep:
              A 
    DOCC [    23 ]

  @DF-RHF Final Energy:  -304.73554581695066

   => Energetics <=

    Nuclear Repulsion Energy =            257.0235276030557543
    One-Electron Energy =                -925.5964998452634518
    Two-Electron Energy =                 363.8374264252570356
    Total Energy =                       -304.7355458169506619

Computation Completed


Properties will be evaluated at   0.000000,   0.000000,   0.000000 [a0]

Properties computed using the SCF density matrix

  Nuclear Dipole Moment: [e a0]
     X:    -4.4918      Y:    -0.0027      Z:    -0.0002

  Electronic Dipole Moment: [e a0]
     X:     3.7198      Y:     0.0030      Z:     0.0001

  Dipole Moment: [e a0]
     X:    -0.7721      Y:     0.0003      Z:    -0.0000     Total:     0.7721

  Dipole Moment: [D]
     X:    -1.9624      Y:     0.0008      Z:    -0.0001     Total:     1.9624


*** tstop() called on n061 at Mon Jun  8 15:02:16 2020
Module time:
	user time   =      35.36 seconds =       0.59 minutes
	system time =       1.72 seconds =       0.03 minutes
	total time  =         10 seconds =       0.17 minutes
Total time:
	user time   =     201.06 seconds =       3.35 minutes
	system time =       8.54 seconds =       0.14 minutes
	total time  =         56 seconds =       0.93 minutes

*** tstart() called on n061
*** at Mon Jun  8 15:02:16 2020


  //>>>>>>>>>>>>>>>>>>>>>>>>>>>>>>>>>>>//
  //               DFMP2               //
  //<<<<<<<<<<<<<<<<<<<<<<<<<<<<<<<<<<<//

   => Loading Basis Set <=

    Name: (HEAVY-AUG-CC-PV(T+D)Z AUX)
    Role: RIFIT
    Keyword: DF_BASIS_MP2
    atoms 1, 4, 7, 10     entry C          line   148 file /opt/psi/4/master/share/psi4/basis/heavy-aug-cc-pvtz-ri.gbs 
    atoms 2-3, 5-6, 8, 11 entry H          line    44 file /opt/psi/4/master/share/psi4/basis/heavy-aug-cc-pvtz-ri.gbs 
    atoms 9, 12           entry O          line   264 file /opt/psi/4/master/share/psi4/basis/heavy-aug-cc-pvtz-ri.gbs 

	 --------------------------------------------------------
	                          DF-MP2                         
	      2nd-Order Density-Fitted Moller-Plesset Theory     
	              RMP2 Wavefunction,   4 Threads             
	                                                         
	        Rob Parrish, Justin Turney, Andy Simmonett,      
	           Ed Hohenstein, and C. David Sherrill          
	 --------------------------------------------------------

   => Auxiliary Basis Set <=

  Basis Set: (HEAVY-AUG-CC-PV(T+D)Z AUX)
    Blend: HEAVY-AUG-CC-PVTZ-RI
    Number of shells: 228
    Number of basis function: 816
    Number of Cartesian functions: 1026
    Spherical Harmonics?: true
    Max angular momentum: 4

	 --------------------------------------------------------
	                 NBF =   360, NAUX =   816
	 --------------------------------------------------------
	   CLASS    FOCC     OCC    AOCC    AVIR     VIR    FVIR
	   PAIRS       6      23      17     337     337       0
	 --------------------------------------------------------

	-----------------------------------------------------------
	 ==================> DF-MP2 Energies <==================== 
	-----------------------------------------------------------
	 Reference Energy          =    -304.7355458169506619 [Eh]
	 Singles Energy            =      -0.0000000000000000 [Eh]
	 Same-Spin Energy          =      -0.2854743547499957 [Eh]
	 Opposite-Spin Energy      =      -0.8632884760801395 [Eh]
	 Correlation Energy        =      -1.1487628308301352 [Eh]
	 Total Energy              =    -305.8843086477808129 [Eh]
	-----------------------------------------------------------
	 ================> DF-SCS-MP2 Energies <================== 
	-----------------------------------------------------------
	 SCS Same-Spin Scale       =       0.3333333333333333 [-]
	 SCS Opposite-Spin Scale   =       1.2000000000000000 [-]
	 SCS Same-Spin Energy      =      -0.0951581182499985 [Eh]
	 SCS Opposite-Spin Energy  =      -1.0359461712961673 [Eh]
	 SCS Correlation Energy    =      -1.1311042895461658 [Eh]
	 SCS Total Energy          =    -305.8666501064968202 [Eh]
	-----------------------------------------------------------


*** tstop() called on n061 at Mon Jun  8 15:02:18 2020
Module time:
	user time   =       6.77 seconds =       0.11 minutes
	system time =       0.12 seconds =       0.00 minutes
	total time  =          2 seconds =       0.03 minutes
Total time:
	user time   =     207.83 seconds =       3.46 minutes
	system time =       8.66 seconds =       0.14 minutes
	total time  =         58 seconds =       0.97 minutes

========================OPTAVC-XTPL==========================

MP2/TZ correlation energy -1.1487628308301352

=============================================================

    Psi4 stopped on: Monday, 08 June 2020 03:02PM
    Psi4 wall time for execution: 0:00:57.59

*** Psi4 exiting successfully. Buy a developer a beer!
