
 Primary working directories    : /tmp/320938.746.gen4.q
 Secondary working directories  : /tmp/320938.746.gen4.q
 Wavefunction directory         : /home/vulcan/mel64643/wfu/
 Main file repository           : /tmp/320938.746.gen4.q/

 ARCHNAME  : Linux/x86_64
 FC        : /opt/intel/compilers_and_libraries_2016.1.150/linux/bin/intel64/ifort
 FCVERSION : 16.0.1
 BLASLIB   : -mkl
 id        : ccgc

 Nodes     nprocs
 n059         3
 Number of processes for MPI-2 version of Molpro:   nprocs(total)=    4   nprocs(compute)=    3   nprocs(helper)=    1
 ga_uses_ma=false, calling ma_init with nominal heap.
 GA-space will be limited to   8.0 MW (determined by -G option)

 Using customized tuning parameters: mindgm=10; mindgv=16; mindgc=4; mindgr=1; noblas=0; mincuda=1000; minvec=7
 default implementation of scratch files=sf  

 ***,Frequencies for min3
 memory,1000,m
 gthresh,energy=1.0d-10,orbital=1.0d-10,oneint=1.0d-16,twoint=1.0d-16,optgrad=1.0d-6,compress=1.0d-13
 geomtyp=xyz
 
  geometry = {
  12
  arbitrary comment
     C    1.776964391707    0.711398808326   -0.047331391796
     C    0.491811976407   -0.059992870174   -0.196493901896
     C    0.450332819107   -1.536294019674    0.101417522804
     O   -0.560767745493    0.727234937526    0.254453964104
     O   -1.837840335593    0.092269037726   -0.120531795196
     H    2.585373063107    0.211465914126   -0.611440883996
     H    1.658334331693    1.742524961248   -0.426584359339
     H    2.093950973847    0.773153589354    1.017045642103
     H   -0.504509250420   -1.982267480736   -0.219726383379
     H    1.282185367006   -2.047878426012   -0.417054165268
     H    0.562526297432   -1.719047256740    1.194887388244
     H   -1.986177174216    0.552136703442   -0.966944312634
  }
 
 basis=cc-pvdz
 {rhf;maxit,200}
 {uccsd(t);maxit,200}

 Variables initialized (661), CPU time= 0.00 sec
 Commands  initialized (458), CPU time= 0.01 sec, 486 directives.
 Default parameters read. Elapsed time= 0.05 sec

 Checking input...
 Passed
1


                                         ***  PROGRAM SYSTEM MOLPRO  ***
                         Copyright, University College Cardiff Consultants Limited, 2008

                                    Version 2010.1 linked May 16 2016 07:17:05


 **********************************************************************************************************************************
 LABEL *   Frequencies for min3                                                          
 Linux-4.4.3/n059(x86_64) 64 bit mpp version                                             DATE: 07-Mar-20          TIME: 05:22:05  
 **********************************************************************************************************************************

 SHA1:             9e8077add272b0f3cad6f7df79ec5211205f459d
 **********************************************************************************************************************************

 THRESHOLDS:

 ZERO    =  1.00D-12  ONEINT  =  1.00D-16  TWOINT  =  1.00D-16  PREFAC  =  1.00D-14  LOCALI  =  1.00D-09  EORDER  =  1.00D-04
 ENERGY  =  1.00D-10  ETEST   =  0.00D+00  EDENS   =  0.00D+00  THRDEDEF=  1.00D-06  GRADIENT=  1.00D-02  STEP    =  1.00D-03
 ORBITAL =  1.00D-10  CIVEC   =  1.00D-05  COEFF   =  1.00D-04  PRINTCI =  5.00D-02  PUNCHCI =  9.90D+01  OPTGRAD =  1.00D-06
 OPTENERG=  1.00D-06  OPTSTEP =  3.00D-04  THRGRAD =  1.00D-10  COMPRESS=  1.00D-13  VARMIN  =  1.00D-07  VARMAX  =  1.00D-03
 THRDOUB =  0.00D+00  THRDIV  =  1.00D-05  THRRED  =  1.00D-07  THRPSP  =  1.00D+00  THRDC   =  1.00D-10  THRCS   =  1.00D-10
 THRNRM  =  1.00D-08  THREQ   =  0.00D+00  THRDE   =  1.00D+00  THRREF  =  1.00D-05  SPARFAC =  1.00D+00  THRDLP  =  1.00D-07
 THRDIA  =  1.00D-10  THRDLS  =  1.00D-07  THRGPS  =  0.00D+00  THRKEX  =  0.00D+00  THRDIS  =  2.00D-01  THRVAR  =  1.00D-10
 THRLOC  =  1.00D-06  THRGAP  =  1.00D-06  THRLOCT = -1.00D+00  THRGAPT = -1.00D+00  THRORB  =  1.00D-06  THRMLTP =  0.00D+00
 THRCPQCI=  1.00D-10  KEXTA   =  0.00D+00  THRCOARS=  0.00D+00  SYMTOL  =  1.00D-06  GRADTOL =  1.00D-06  THROVL  =  1.00D-08
 THRORTH =  1.00D-08  GRID    =  1.00D-06  GRIDMAX =  1.00D-03  DTMAX   =  0.00D+00

 SETTING GEOMTYP        =    XYZ

 Variable memory set to 1000000000 words,  buffer space   230000 words

 SETTING BASIS          =    CC-PVDZ


 Recomputing integrals since basis changed


 Using spherical harmonics

 Library entry C      S cc-pVDZ              selected for orbital group  1
 Library entry C      P cc-pVDZ              selected for orbital group  1
 Library entry C      D cc-pVDZ              selected for orbital group  1
 Library entry O      S cc-pVDZ              selected for orbital group  2
 Library entry O      P cc-pVDZ              selected for orbital group  2
 Library entry O      D cc-pVDZ              selected for orbital group  2
 Library entry H      S cc-pVDZ              selected for orbital group  3
 Library entry H      P cc-pVDZ              selected for orbital group  3

1PROGRAM * SEWARD (Integral evaluation for generally contracted gaussian basis sets)     Author: Roland Lindh, 1990

 Geometry written to block  1 of record 700


 Point group  C1  



 ATOMIC COORDINATES

 NR  ATOM    CHARGE       X              Y              Z

   1  C       6.00    3.357976046    1.344348918   -0.089443368
   2  C       6.00    0.929389944   -0.113370094   -0.371319661
   3  C       6.00    0.851005696   -2.903174955    0.191651343
   4  O       8.00   -1.059697462    1.374274865    0.480848305
   5  O       8.00   -3.473014908    0.174363212   -0.227772083
   6  H       1.00    4.885647037    0.399612664   -1.155455816
   7  H       1.00    3.133797721    3.292894954   -0.806127611
   8  H       1.00    3.956993873    1.461048541    1.921937727
   9  H       1.00   -0.953384314   -3.745942658   -0.415222688
  10  H       1.00    2.422979193   -3.869929376   -0.788118154
  11  H       1.00    1.063020644   -3.248528522    2.258009922
  12  H       1.00   -3.753330908    1.043387157   -1.827259935

 Bond lengths in Bohr (Angstrom)

 1-2  2.846476668  1-6  2.088704811  1-7  2.088234632  1-8  2.101926513  2-3  2.847119878
     ( 1.506290578)     ( 1.105294982)     ( 1.105046174)     ( 1.112291606)     ( 1.506630951)

  2- 4  2.625975338   3- 9  2.081916617   3-10  2.089416917   3-11  2.105720114   4- 5  2.786760112
       ( 1.389606300)       ( 1.101702825)       ( 1.105671813)       ( 1.114299093)       ( 1.474689938)

  5-12  1.841776606
       ( 0.974626204)

 Bond angles

  1-2-3  120.37866573   1-2-4  108.90555081   2-1-6  109.98947225   2-1-7  110.62671485

  2- 1- 8  111.49006160   2- 3- 9  111.27698334   2- 3-10  109.87336591   2- 3-11  110.60792411

  2- 4- 5  109.23946113   3- 2- 4  118.03986083   4- 5-12   98.59622566   6- 1- 7  108.99035852

  6- 1- 8  107.76176474   7- 1- 8  107.89083863   9- 3-10  109.15174939   9- 3-11  107.87381264

 10- 3-11  107.97002439

 NUCLEAR CHARGE:                   41
 NUMBER OF PRIMITIVE AOS:         184
 NUMBER OF SYMMETRY AOS:          179
 NUMBER OF CONTRACTIONS:          105   ( 105A   )
 NUMBER OF CORE ORBITALS:           5   (   5A   )
 NUMBER OF VALENCE ORBITALS:       27   (  27A   )


 NUCLEAR REPULSION ENERGY  183.23368201


 Eigenvalues of metric

         1 0.345E-02 0.435E-02 0.105E-01 0.141E-01 0.182E-01 0.214E-01 0.331E-01 0.346E-01


 Contracted 2-electron integrals neglected if value below      1.0D-16
 AO integral compression algorithm  1   Integral accuracy      1.0D-16

     127.402 MB (compressed) written to integral file ( 93.4%)

     Node minimum: 32.506 MB, node maximum: 50.070 MB


 NUMBER OF SORTED TWO-ELECTRON INTEGRALS:    5164320.     BUFFER LENGTH:  32768
 NUMBER OF SEGMENTS:   1  SEGMENT LENGTH:    5164320      RECORD LENGTH: 524288

 Memory used in sort:       5.72 MW

 SORT1 READ    17075629. AND WROTE     5135975. INTEGRALS IN     15 RECORDS. CPU TIME:     0.34 SEC, REAL TIME:     0.38 SEC
 SORT2 READ    15396841. AND WROTE    15487395. INTEGRALS IN    372 RECORDS. CPU TIME:     0.10 SEC, REAL TIME:     0.15 SEC

 Node minimum:     5160610.  Node maximum:     5164320. integrals

 OPERATOR DM      FOR CENTER  0  COORDINATES:    0.000000    0.000000    0.000000


 **********************************************************************************************************************************
 DATASETS  * FILE   NREC   LENGTH (MB)   RECORD NAMES
              1      18        3.17       500      610      700      900      950      970     1000      129      960     1100   
                                          VAR    BASINP    GEOM    SYMINP    ZMAT    AOBASIS   BASIS     P2S    ABASIS      S 
                                         1400     1410     1200     1210     1080     1600     1650     1700   
                                           T        V       H0       H01     AOSYM     SMH    MOLCAS    OPER   

 PROGRAMS   *        TOTAL       INT
 CPU TIMES  *         1.18      1.14
 REAL TIME  *         1.61 SEC
 DISK USED  *       313.92 MB      
 GA USED    *         0.00 MB       (max)       0.00 MB       (current)
 **********************************************************************************************************************************

1PROGRAM * RHF-SCF (OPEN SHELL)       Authors: W. Meyer, H.-J. Werner


 NUMBER OF ELECTRONS:      21+   20-    SPACE SYMMETRY=1    SPIN SYMMETRY: Doublet 
 CONVERGENCE THRESHOLDS:    1.00E-10 (Density)    1.00E-11 (Energy)
 MAX. NUMBER OF ITERATIONS:      200
 INTERPOLATION TYPE:            DIIS
 INTERPOLATION STEPS:              2 (START)      1 (STEP)
 LEVEL SHIFTS:                 -0.30 (CLOSED)  0.00 (OPEN) 



 Orbital guess generated from atomic densities. Full valence occupancy:   32

 Molecular orbital dump at record        2100.2

 ITERATION    DDIFF          GRAD             ENERGY        2-EL.EN.            DIPOLE MOMENTS         DIIS
    1      0.000D+00      0.000D+00      -267.17822664    555.839426    0.57132    0.05025   -0.74916    0
    2      0.000D+00      0.617D-02      -267.24892012    555.761462    0.41484   -0.13067   -0.59845    1
    3      0.928D-02      0.214D-02      -267.26109650    555.679121    0.39447   -0.05863   -0.62572    2
    4      0.336D-02      0.912D-03      -267.26470536    555.831449    0.37978   -0.09880   -0.64207    3
    5      0.186D-02      0.364D-03      -267.26527498    555.802813    0.38231   -0.09230   -0.63502    4
    6      0.793D-03      0.110D-03      -267.26535157    555.789031    0.38057   -0.09210   -0.63774    5
    7      0.277D-03      0.512D-04      -267.26537179    555.786024    0.37986   -0.09184   -0.63723    6
    8      0.144D-03      0.273D-04      -267.26537788    555.784069    0.38014   -0.09196   -0.63744    7
    9      0.927D-04      0.115D-04      -267.26537880    555.784387    0.38033   -0.09192   -0.63719    8
   10      0.367D-04      0.501D-05      -267.26537896    555.785000    0.38059   -0.09193   -0.63726    9
   11      0.147D-04      0.196D-05      -267.26537899    555.784841    0.38064   -0.09192   -0.63727    9
   12      0.650D-05      0.671D-06      -267.26537899    555.784976    0.38066   -0.09192   -0.63726    9
   13      0.227D-05      0.226D-06      -267.26537899    555.784891    0.38066   -0.09192   -0.63726    9
   14      0.632D-06      0.758D-07      -267.26537899    555.784900    0.38066   -0.09193   -0.63726    9
   15      0.193D-06      0.301D-07      -267.26537899    555.784896    0.38066   -0.09193   -0.63726    9
   16      0.827D-07      0.146D-07      -267.26537899    555.784898    0.38066   -0.09193   -0.63726    9
   17      0.376D-07      0.755D-08      -267.26537899    555.784898    0.38066   -0.09193   -0.63726    9
   18      0.224D-07      0.343D-08      -267.26537899    555.784898    0.38066   -0.09193   -0.63726    9
   19      0.115D-07      0.133D-08      -267.26537899    555.784898    0.38066   -0.09193   -0.63726    9
   20      0.444D-08      0.569D-09      -267.26537899    555.784898    0.38066   -0.09193   -0.63726    9
   21      0.166D-08      0.288D-09      -267.26537899    555.784898    0.38066   -0.09193   -0.63726    9
   22      0.758D-09      0.162D-09      -267.26537899    555.784898    0.38066   -0.09193   -0.63726    9
   23      0.448D-09      0.798D-10      -267.26537899    555.784898    0.38066   -0.09193   -0.63726    9
   24      0.264D-09      0.317D-10      -267.26537899    555.784898    0.38066   -0.09193   -0.63726    9
   25      0.933D-10      0.129D-10      -267.26537899    555.784898    0.38066   -0.09193   -0.63726    0

 Final alpha occupancy:  21
 Final beta  occupancy:  20

 !RHF STATE 1.1 Energy               -267.265378989736
 Nuclear energy                       183.23368201
 One-electron energy                 -728.39150986
 Two-electron energy                  277.89244886
 Virial quotient                       -1.00154989
 !RHF STATE 1.1 Dipole moment           0.38066441    -0.09192619    -0.63725931
 Dipole moment /Debye                   0.96748904    -0.23363777    -1.61964551

 Orbital energies:

         1.1          2.1          3.1          4.1          5.1          6.1          7.1          8.1          9.1         10.1
    -20.630443   -20.628906   -11.279203   -11.237769   -11.232181    -1.470224    -1.240677    -1.023237    -0.945401    -0.768370

        11.1         12.1         13.1         14.1         15.1         16.1         17.1         18.1         19.1         20.1
     -0.704616    -0.642986    -0.626800    -0.588962    -0.545139    -0.543468    -0.539075    -0.516888    -0.493036    -0.469797

        21.1         22.1         23.1
     -0.352254     0.181265     0.183593


 **********************************************************************************************************************************
 DATASETS  * FILE   NREC   LENGTH (MB)   RECORD NAMES
              1      18        3.17       500      610      700      900      950      970     1000      129      960     1100   
                                          VAR    BASINP    GEOM    SYMINP    ZMAT    AOBASIS   BASIS     P2S    ABASIS      S 
                                         1400     1410     1200     1210     1080     1600     1650     1700   
                                           T        V       H0       H01     AOSYM     SMH    MOLCAS    OPER   

              2       3        0.77       700     1000     2100   
                                         GEOM     BASIS     RHF  

 PROGRAMS   *        TOTAL       RHF       INT
 CPU TIMES  *         2.82      1.63      1.14
 REAL TIME  *         3.39 SEC
 DISK USED  *       330.49 MB      
 SF USED    *         0.04 MB      
 GA USED    *         0.00 MB       (max)       0.00 MB       (current)
 **********************************************************************************************************************************


1PROGRAM * CCSD (Unrestricted open-shell coupled cluster)     Authors: C. Hampel, H.-J. Werner, 1991, M. Deegan, P.J. Knowles, 1992


 Convergence thresholds:  THRVAR = 1.00D-08  THRDEN = 1.00D-10

 CCSD(T)     terms to be evaluated (factor= 1.000)


 Number of core orbitals:           5 (   5 )
 Number of closed-shell orbitals:  15 (  15 )
 Number of active  orbitals:        1 (   1 )
 Number of external orbitals:      84 (  84 )

 Memory could be reduced to 24.91 Mwords without degradation in triples

 Number of N-1 electron functions:              31
 Number of N-2 electron functions:             465
 Number of singly external CSFs:              2635
 Number of doubly external CSFs:           2537250
 Total number of CSFs:                     2539885

 Molecular orbitals read from record     2100.2  Type=RHF/CANONICAL (state 1.1)

 Integral transformation finished. Total CPU:   1.11 sec, npass=  1  Memory used:  12.63 MW

 Starting RMP2 calculation

 ITER.      SQ.NORM     CORR.ENERGY   TOTAL ENERGY   ENERGY CHANGE        DEN1      VAR(S)    VAR(P)  DIIS     TIME
   1      1.24303391    -0.78639735  -268.05177634    -0.78639735    -0.00304974  0.20D-04  0.11D-02  1  1     1.50
   2      1.24567515    -0.78968627  -268.05506526    -0.00328892    -0.00000474  0.54D-06  0.19D-05  2  2     1.82
   3      1.24574067    -0.78972832  -268.05510731    -0.00004205    -0.00000003  0.16D-07  0.68D-08  3  3     2.17
   4      1.24574163    -0.78972832  -268.05510731    -0.00000000    -0.00000000  0.27D-09  0.38D-10  4  4     2.55
   5      1.24574171    -0.78972836  -268.05510735    -0.00000003    -0.00000000  0.25D-11  0.65D-12  5  5     2.97
   6      1.24574172    -0.78972836  -268.05510735    -0.00000001    -0.00000000  0.28D-13  0.86D-14  6  6     3.40
   7      1.24574172    -0.78972836  -268.05510735     0.00000000    -0.00000000  0.47D-15  0.12D-15  6  1     3.84
   8      1.24574172    -0.78972836  -268.05510735     0.00000000    -0.00000000  0.59D-17  0.13D-17  6  2     4.27

 Norm of t1 vector:      0.03892467      S-energy:    -0.00227102      T1 diagnostic:  0.00055006
 Norm of t2 vector:      0.49419287      P-energy:    -0.78745734
                                         Alpha-Beta:  -0.59342782
                                         Alpha-Alpha: -0.10094560
                                         Beta-Beta:   -0.09308393

 Spin contamination <S**2-Sz**2-Sz>     0.00103992
  Reference energy                   -267.265378989735
  RHF-RMP2 correlation energy          -0.789728362267
 !RHF-RMP2 energy                    -268.055107352002

 Starting UCCSD calculation

 ITER.      SQ.NORM     CORR.ENERGY   TOTAL ENERGY   ENERGY CHANGE        DEN1      VAR(S)    VAR(P)  DIIS     TIME
   1      1.26279964    -0.80905920  -268.07443819    -0.80905920    -0.02515698  0.38D-02  0.59D-02  1  1    10.67
   2      1.29157152    -0.83646822  -268.10184721    -0.02740902    -0.00201124  0.22D-03  0.66D-03  2  2    17.05
   3      1.30151124    -0.84096626  -268.10634525    -0.00449804    -0.00032456  0.19D-03  0.56D-04  3  3    23.46
   4      1.30642325    -0.84244326  -268.10782225    -0.00147699    -0.00007205  0.43D-04  0.14D-04  4  4    29.91
   5      1.30915127    -0.84283113  -268.10821012    -0.00038787    -0.00002367  0.19D-04  0.32D-05  5  5    36.37
   6      1.31108945    -0.84303552  -268.10841451    -0.00020439    -0.00000646  0.42D-05  0.12D-05  6  6    42.86
   7      1.31203866    -0.84309429  -268.10847328    -0.00005877    -0.00000208  0.14D-05  0.37D-06  6  2    49.34
   8      1.31248030    -0.84313698  -268.10851597    -0.00004269    -0.00000065  0.45D-06  0.11D-06  6  1    55.83
   9      1.31266545    -0.84314156  -268.10852055    -0.00000458    -0.00000022  0.15D-06  0.35D-07  6  4    62.32
  10      1.31272858    -0.84314449  -268.10852348    -0.00000292    -0.00000005  0.35D-07  0.95D-08  6  3    68.82
  11      1.31275810    -0.84314323  -268.10852222     0.00000126    -0.00000002  0.13D-07  0.28D-08  6  5    75.34
  12      1.31276847    -0.84314297  -268.10852196     0.00000026    -0.00000000  0.26D-08  0.95D-09  6  6    81.84
  13      1.31276732    -0.84314206  -268.10852105     0.00000092    -0.00000000  0.96D-09  0.28D-09  6  2    88.34
  14      1.31276211    -0.84314121  -268.10852020     0.00000084    -0.00000000  0.21D-09  0.67D-10  6  1    94.84
  15      1.31275804    -0.84314063  -268.10851962     0.00000059    -0.00000000  0.78D-10  0.19D-10  6  4   101.33
  16      1.31275486    -0.84314024  -268.10851923     0.00000038    -0.00000000  0.28D-10  0.63D-11  6  3   107.83
  17      1.31275266    -0.84314001  -268.10851900     0.00000024    -0.00000000  0.10D-10  0.24D-11  6  5   114.34
  18      1.31275176    -0.84313995  -268.10851894     0.00000006    -0.00000000  0.41D-11  0.87D-12  6  6   120.84
  19      1.31275115    -0.84313991  -268.10851890     0.00000003    -0.00000000  0.16D-11  0.37D-12  6  2   127.34
  20      1.31275083    -0.84313990  -268.10851889     0.00000001    -0.00000000  0.60D-12  0.13D-12  6  1   133.84
  21      1.31275067    -0.84313989  -268.10851888     0.00000001    -0.00000000  0.28D-12  0.58D-13  6  4   140.33
  22      1.31275055    -0.84313988  -268.10851887     0.00000001    -0.00000000  0.73D-13  0.21D-13  6  3   146.83
  23      1.31275049    -0.84313988  -268.10851887     0.00000000    -0.00000000  0.21D-13  0.62D-14  6  5   153.33
  24      1.31275048    -0.84313988  -268.10851887    -0.00000000    -0.00000000  0.67D-14  0.22D-14  6  6   159.83
  25      1.31275049    -0.84313988  -268.10851887    -0.00000000    -0.00000000  0.21D-14  0.52D-15  6  2   166.33
  26      1.31275049    -0.84313988  -268.10851887    -0.00000000    -0.00000000  0.76D-15  0.15D-15  6  1   172.81
  27      1.31275050    -0.84313988  -268.10851887    -0.00000000    -0.00000000  0.20D-15  0.62D-16  6  3   179.30
  28      1.31275051    -0.84313988  -268.10851887    -0.00000000    -0.00000000  0.29D-16  0.11D-16  6  4   185.80
  29      1.31275051    -0.84313988  -268.10851887    -0.00000000    -0.00000000  0.70D-17  0.29D-17  6  5   192.31
  30      1.31275051    -0.84313988  -268.10851887    -0.00000000    -0.00000000  0.15D-17  0.54D-18  6  6   198.80
  31      1.31275051    -0.84313988  -268.10851887    -0.00000000    -0.00000000  0.35D-18  0.10D-18  6  2   205.29

 Norm of t1 vector:      0.13869605      S-energy:    -0.00282034      T1 diagnostic:  0.01616707
                                                                       D1 diagnostic:  0.06280411
 Norm of t2 vector:      0.54176925      P-energy:    -0.84031954
                                         Alpha-Beta:  -0.66486933
                                         Alpha-Alpha: -0.09147698
                                         Beta-Beta:   -0.08397323

 Spin contamination <S**2-Sz**2-Sz>     0.00217054

 Memory could be reduced to 28.85 Mwords without degradation in triples
 

 RESULTS
 =======

  Reference energy                   -267.265378989735
  UCCSD singles energy                 -0.002820339984
  UCCSD pair energy                    -0.840319542178
  UCCSD correlation energy             -0.843139882162
  Triples (T) contribution             -0.024976823226
  Total correlation energy             -0.868116705388
 
  RHF-UCCSD energy                   -268.108518871897
  RHF-UCCSD[T] energy                -268.134831598107
  RHF-UCCSD-T energy                 -268.133074143647
 !RHF-UCCSD(T) energy                -268.133495695123

 Program statistics:

 Available memory in ccsd:               999997692
 Min. memory needed in ccsd:               7337057
 Max. memory used in ccsd:                10523002
 Max. memory used in cckext:              10867977 (31 integral passes)
 Max. memory used in cckint:              12633073 ( 1 integral passes)



 **********************************************************************************************************************************
 DATASETS  * FILE   NREC   LENGTH (MB)   RECORD NAMES
              1      18        3.17       500      610      700      900      950      970     1000      129      960     1100   
                                          VAR    BASINP    GEOM    SYMINP    ZMAT    AOBASIS   BASIS     P2S    ABASIS      S 
                                         1400     1410     1200     1210     1080     1600     1650     1700   
                                           T        V       H0       H01     AOSYM     SMH    MOLCAS    OPER   

              2       3        0.77       700     1000     2100   
                                         GEOM     BASIS     RHF  

 PROGRAMS   *        TOTAL  UCCSD(T)       RHF       INT
 CPU TIMES  *       257.49    254.67      1.63      1.14
 REAL TIME  *       269.30 SEC
 DISK USED  *         1.30 GB      
 SF USED    *       553.73 MB      
 GA USED    *         0.00 MB       (max)       0.00 MB       (current)
 **********************************************************************************************************************************

        UCCSD(T)        RHF-SCF 
   -268.13349570   -267.26537899
 **********************************************************************************************************************************
 Variable memory released
