
 Primary working directories    : /tmp/320938.744.gen4.q
 Secondary working directories  : /tmp/320938.744.gen4.q
 Wavefunction directory         : /home/vulcan/mel64643/wfu/
 Main file repository           : /tmp/320938.744.gen4.q/

 ARCHNAME  : Linux/x86_64
 FC        : /opt/intel/compilers_and_libraries_2016.1.150/linux/bin/intel64/ifort
 FCVERSION : 16.0.1
 BLASLIB   : -mkl
 id        : ccgc

 Nodes     nprocs
 n064         3
 Number of processes for MPI-2 version of Molpro:   nprocs(total)=    4   nprocs(compute)=    3   nprocs(helper)=    1
 ga_uses_ma=false, calling ma_init with nominal heap.
 GA-space will be limited to   8.0 MW (determined by -G option)

 Using customized tuning parameters: mindgm=10; mindgv=16; mindgc=4; mindgr=1; noblas=0; mincuda=1000; minvec=7
 default implementation of scratch files=sf  

 ***,Frequencies for min3
 memory,1000,m
 gthresh,energy=1.0d-10,orbital=1.0d-10,oneint=1.0d-16,twoint=1.0d-16,optgrad=1.0d-6,compress=1.0d-13
 geomtyp=xyz
 
  geometry = {
  12
  arbitrary comment
     C    1.776964391707    0.711398808326   -0.047331391796
     C    0.491811976407   -0.059992870174   -0.196493901896
     C    0.449756435841   -1.536153987093    0.101396702431
     O   -0.560654843319    0.727228597351    0.254464895361
     O   -1.837638147381    0.092084808680   -0.120735931944
     H    2.585294557049    0.211992781887   -0.611735907317
     H    1.660237869733    1.743259721256   -0.426092896859
     H    2.095772276714    0.774213154747    1.017699195636
     H   -0.504469515825   -1.982726275897   -0.219260024937
     H    1.282207246830   -2.046884385628   -0.417224655100
     H    0.562847396987   -1.719237578713    1.195091601053
     H   -1.988344039316    0.550827714896   -0.964980170772
  }
 
 basis=cc-pvdz
 {rhf;maxit,200}
 {uccsd(t);maxit,200}

 Variables initialized (661), CPU time= 0.01 sec
 Commands  initialized (458), CPU time= 0.00 sec, 486 directives.
 Default parameters read. Elapsed time= 0.06 sec

 Checking input...
 Passed
1


                                         ***  PROGRAM SYSTEM MOLPRO  ***
                         Copyright, University College Cardiff Consultants Limited, 2008

                                    Version 2010.1 linked May 16 2016 07:17:05


 **********************************************************************************************************************************
 LABEL *   Frequencies for min3                                                          
 Linux-4.4.3/n064(x86_64) 64 bit mpp version                                             DATE: 07-Mar-20          TIME: 05:21:04  
 **********************************************************************************************************************************

 SHA1:             9e8077add272b0f3cad6f7df79ec5211205f459d
 **********************************************************************************************************************************

 THRESHOLDS:

 ZERO    =  1.00D-12  ONEINT  =  1.00D-16  TWOINT  =  1.00D-16  PREFAC  =  1.00D-14  LOCALI  =  1.00D-09  EORDER  =  1.00D-04
 ENERGY  =  1.00D-10  ETEST   =  0.00D+00  EDENS   =  0.00D+00  THRDEDEF=  1.00D-06  GRADIENT=  1.00D-02  STEP    =  1.00D-03
 ORBITAL =  1.00D-10  CIVEC   =  1.00D-05  COEFF   =  1.00D-04  PRINTCI =  5.00D-02  PUNCHCI =  9.90D+01  OPTGRAD =  1.00D-06
 OPTENERG=  1.00D-06  OPTSTEP =  3.00D-04  THRGRAD =  1.00D-10  COMPRESS=  1.00D-13  VARMIN  =  1.00D-07  VARMAX  =  1.00D-03
 THRDOUB =  0.00D+00  THRDIV  =  1.00D-05  THRRED  =  1.00D-07  THRPSP  =  1.00D+00  THRDC   =  1.00D-10  THRCS   =  1.00D-10
 THRNRM  =  1.00D-08  THREQ   =  0.00D+00  THRDE   =  1.00D+00  THRREF  =  1.00D-05  SPARFAC =  1.00D+00  THRDLP  =  1.00D-07
 THRDIA  =  1.00D-10  THRDLS  =  1.00D-07  THRGPS  =  0.00D+00  THRKEX  =  0.00D+00  THRDIS  =  2.00D-01  THRVAR  =  1.00D-10
 THRLOC  =  1.00D-06  THRGAP  =  1.00D-06  THRLOCT = -1.00D+00  THRGAPT = -1.00D+00  THRORB  =  1.00D-06  THRMLTP =  0.00D+00
 THRCPQCI=  1.00D-10  KEXTA   =  0.00D+00  THRCOARS=  0.00D+00  SYMTOL  =  1.00D-06  GRADTOL =  1.00D-06  THROVL  =  1.00D-08
 THRORTH =  1.00D-08  GRID    =  1.00D-06  GRIDMAX =  1.00D-03  DTMAX   =  0.00D+00

 SETTING GEOMTYP        =    XYZ

 Variable memory set to 1000000000 words,  buffer space   230000 words

 SETTING BASIS          =    CC-PVDZ


 Recomputing integrals since basis changed


 Using spherical harmonics

 Library entry C      S cc-pVDZ              selected for orbital group  1
 Library entry C      P cc-pVDZ              selected for orbital group  1
 Library entry C      D cc-pVDZ              selected for orbital group  1
 Library entry O      S cc-pVDZ              selected for orbital group  2
 Library entry O      P cc-pVDZ              selected for orbital group  2
 Library entry O      D cc-pVDZ              selected for orbital group  2
 Library entry H      S cc-pVDZ              selected for orbital group  3
 Library entry H      P cc-pVDZ              selected for orbital group  3

1PROGRAM * SEWARD (Integral evaluation for generally contracted gaussian basis sets)     Author: Roland Lindh, 1990

 Geometry written to block  1 of record 700


 Point group  C1  



 ATOMIC COORDINATES

 NR  ATOM    CHARGE       X              Y              Z

   1  C       6.00    3.357976046    1.344348918   -0.089443368
   2  C       6.00    0.929389944   -0.113370094   -0.371319661
   3  C       6.00    0.849916490   -2.902910331    0.191611998
   4  O       8.00   -1.059484108    1.374262884    0.480868962
   5  O       8.00   -3.472632827    0.174015069   -0.228157846
   6  H       1.00    4.885498682    0.400608300   -1.156013330
   7  H       1.00    3.137394887    3.294283449   -0.805198882
   8  H       1.00    3.960435637    1.463050830    1.923172764
   9  H       1.00   -0.953309227   -3.746809655   -0.414341399
  10  H       1.00    2.423020540   -3.868050912   -0.788440333
  11  H       1.00    1.063627434   -3.248888179    2.258395828
  12  H       1.00   -3.757425689    1.040913527   -1.823548245

 Bond lengths in Bohr (Angstrom)

 1-2  2.846476668  1-6  2.088430809  1-7  2.088829021  1-8  2.104203269  2-3  2.846883000
     ( 1.506290578)     ( 1.105149986)     ( 1.105360711)     ( 1.113496413)     ( 1.506505600)

  2- 4  2.625813649   3- 9  2.081097924   3-10  2.089654341   3-11  2.106411270   4- 5  2.786862137
       ( 1.389520738)       ( 1.101269591)       ( 1.105797452)       ( 1.114664837)       ( 1.474743928)

  5-12  1.837903816
       ( 0.972576812)

 Bond angles

  1-2-3  120.40007158   1-2-4  108.90265503   2-1-6  110.00178548   2-1-7  110.73410111

  2- 1- 8  111.58520266   2- 3- 9  111.34314201   2- 3-10  109.80433633   2- 3-11  110.61737111

  2- 4- 5  109.22588667   3- 2- 4  118.02209534   4- 5-12   98.73591481   6- 1- 7  108.91003175

  6- 1- 8  107.73121999   7- 1- 8  107.77730750   9- 3-10  109.17415053   9- 3-11  107.87843734

 10- 3-11  107.93511255

 NUCLEAR CHARGE:                   41
 NUMBER OF PRIMITIVE AOS:         184
 NUMBER OF SYMMETRY AOS:          179
 NUMBER OF CONTRACTIONS:          105   ( 105A   )
 NUMBER OF CORE ORBITALS:           5   (   5A   )
 NUMBER OF VALENCE ORBITALS:       27   (  27A   )


 NUCLEAR REPULSION ENERGY  183.23758495


 Eigenvalues of metric

         1 0.345E-02 0.435E-02 0.105E-01 0.141E-01 0.182E-01 0.214E-01 0.331E-01 0.346E-01


 Contracted 2-electron integrals neglected if value below      1.0D-16
 AO integral compression algorithm  1   Integral accuracy      1.0D-16

     127.402 MB (compressed) written to integral file ( 93.4%)

     Node minimum: 32.506 MB, node maximum: 55.575 MB


 NUMBER OF SORTED TWO-ELECTRON INTEGRALS:    5164320.     BUFFER LENGTH:  32768
 NUMBER OF SEGMENTS:   1  SEGMENT LENGTH:    5164320      RECORD LENGTH: 524288

 Memory used in sort:       5.72 MW

 SORT1 READ    17075251. AND WROTE     5135919. INTEGRALS IN     15 RECORDS. CPU TIME:     0.36 SEC, REAL TIME:     0.40 SEC
 SORT2 READ    15396696. AND WROTE    15487395. INTEGRALS IN    636 RECORDS. CPU TIME:     0.11 SEC, REAL TIME:     0.15 SEC

 Node minimum:     5160610.  Node maximum:     5164320. integrals

 OPERATOR DM      FOR CENTER  0  COORDINATES:    0.000000    0.000000    0.000000


 **********************************************************************************************************************************
 DATASETS  * FILE   NREC   LENGTH (MB)   RECORD NAMES
              1      18        3.17       500      610      700      900      950      970     1000      129      960     1100   
                                          VAR    BASINP    GEOM    SYMINP    ZMAT    AOBASIS   BASIS     P2S    ABASIS      S 
                                         1400     1410     1200     1210     1080     1600     1650     1700   
                                           T        V       H0       H01     AOSYM     SMH    MOLCAS    OPER   

 PROGRAMS   *        TOTAL       INT
 CPU TIMES  *         1.31      1.24
 REAL TIME  *         1.76 SEC
 DISK USED  *       317.20 MB      
 GA USED    *         0.00 MB       (max)       0.00 MB       (current)
 **********************************************************************************************************************************

1PROGRAM * RHF-SCF (OPEN SHELL)       Authors: W. Meyer, H.-J. Werner


 NUMBER OF ELECTRONS:      21+   20-    SPACE SYMMETRY=1    SPIN SYMMETRY: Doublet 
 CONVERGENCE THRESHOLDS:    1.00E-10 (Density)    1.00E-11 (Energy)
 MAX. NUMBER OF ITERATIONS:      200
 INTERPOLATION TYPE:            DIIS
 INTERPOLATION STEPS:              2 (START)      1 (STEP)
 LEVEL SHIFTS:                 -0.30 (CLOSED)  0.00 (OPEN) 



 Orbital guess generated from atomic densities. Full valence occupancy:   32

 Molecular orbital dump at record        2100.2

 ITERATION    DDIFF          GRAD             ENERGY        2-EL.EN.            DIPOLE MOMENTS         DIIS
    1      0.000D+00      0.000D+00      -267.17829293    555.842916    0.57304    0.05016   -0.74661    0
    2      0.000D+00      0.617D-02      -267.24898205    555.764624    0.41478   -0.13077   -0.59717    1
    3      0.928D-02      0.214D-02      -267.26116916    555.682394    0.39417   -0.05870   -0.62469    2
    4      0.336D-02      0.912D-03      -267.26478497    555.834911    0.37920   -0.09886   -0.64134    3
    5      0.186D-02      0.364D-03      -267.26535580    555.806311    0.38156   -0.09239   -0.63438    4
    6      0.793D-03      0.110D-03      -267.26543253    555.792607    0.37976   -0.09219   -0.63716    5
    7      0.277D-03      0.512D-04      -267.26545278    555.789593    0.37901   -0.09193   -0.63666    6
    8      0.144D-03      0.273D-04      -267.26545887    555.787659    0.37927   -0.09205   -0.63689    7
    9      0.926D-04      0.115D-04      -267.26545980    555.787968    0.37945   -0.09200   -0.63664    8
   10      0.366D-04      0.502D-05      -267.26545995    555.788581    0.37971   -0.09202   -0.63671    9
   11      0.147D-04      0.197D-05      -267.26545998    555.788421    0.37976   -0.09201   -0.63671    9
   12      0.652D-05      0.672D-06      -267.26545998    555.788556    0.37978   -0.09201   -0.63671    9
   13      0.228D-05      0.227D-06      -267.26545998    555.788471    0.37978   -0.09201   -0.63671    9
   14      0.633D-06      0.762D-07      -267.26545998    555.788480    0.37978   -0.09202   -0.63671    9
   15      0.194D-06      0.303D-07      -267.26545998    555.788476    0.37978   -0.09202   -0.63670    9
   16      0.834D-07      0.147D-07      -267.26545998    555.788477    0.37978   -0.09202   -0.63670    9
   17      0.381D-07      0.761D-08      -267.26545998    555.788477    0.37979   -0.09202   -0.63670    9
   18      0.226D-07      0.344D-08      -267.26545998    555.788477    0.37979   -0.09202   -0.63670    9
   19      0.115D-07      0.134D-08      -267.26545998    555.788477    0.37979   -0.09202   -0.63670    9
   20      0.445D-08      0.574D-09      -267.26545998    555.788477    0.37979   -0.09202   -0.63670    9
   21      0.168D-08      0.290D-09      -267.26545998    555.788477    0.37979   -0.09202   -0.63670    9
   22      0.765D-09      0.164D-09      -267.26545998    555.788477    0.37979   -0.09202   -0.63670    9
   23      0.451D-09      0.805D-10      -267.26545998    555.788477    0.37979   -0.09202   -0.63670    9
   24      0.266D-09      0.321D-10      -267.26545998    555.788477    0.37979   -0.09202   -0.63670    9
   25      0.944D-10      0.131D-10      -267.26545998    555.788477    0.37979   -0.09202   -0.63670    0

 Final alpha occupancy:  21
 Final beta  occupancy:  20

 !RHF STATE 1.1 Energy               -267.265459984124
 Nuclear energy                       183.23758495
 One-electron energy                 -728.39728367
 Two-electron energy                  277.89423873
 Virial quotient                       -1.00154423
 !RHF STATE 1.1 Dipole moment           0.37978503    -0.09201560    -0.63670488
 Dipole moment /Debye                   0.96525405    -0.23386501    -1.61823640

 Orbital energies:

         1.1          2.1          3.1          4.1          5.1          6.1          7.1          8.1          9.1         10.1
    -20.630519   -20.628663   -11.279280   -11.237930   -11.232205    -1.470361    -1.241095    -1.023234    -0.945364    -0.768545

        11.1         12.1         13.1         14.1         15.1         16.1         17.1         18.1         19.1         20.1
     -0.704923    -0.643126    -0.626790    -0.588798    -0.545180    -0.543348    -0.538918    -0.517007    -0.493046    -0.469920

        21.1         22.1         23.1
     -0.352299     0.181417     0.183607


 **********************************************************************************************************************************
 DATASETS  * FILE   NREC   LENGTH (MB)   RECORD NAMES
              1      18        3.17       500      610      700      900      950      970     1000      129      960     1100   
                                          VAR    BASINP    GEOM    SYMINP    ZMAT    AOBASIS   BASIS     P2S    ABASIS      S 
                                         1400     1410     1200     1210     1080     1600     1650     1700   
                                           T        V       H0       H01     AOSYM     SMH    MOLCAS    OPER   

              2       3        0.77       700     1000     2100   
                                         GEOM     BASIS     RHF  

 PROGRAMS   *        TOTAL       RHF       INT
 CPU TIMES  *         3.06      1.75      1.24
 REAL TIME  *         3.73 SEC
 DISK USED  *       333.76 MB      
 SF USED    *         0.04 MB      
 GA USED    *         0.00 MB       (max)       0.00 MB       (current)
 **********************************************************************************************************************************


1PROGRAM * CCSD (Unrestricted open-shell coupled cluster)     Authors: C. Hampel, H.-J. Werner, 1991, M. Deegan, P.J. Knowles, 1992


 Convergence thresholds:  THRVAR = 1.00D-08  THRDEN = 1.00D-10

 CCSD(T)     terms to be evaluated (factor= 1.000)


 Number of core orbitals:           5 (   5 )
 Number of closed-shell orbitals:  15 (  15 )
 Number of active  orbitals:        1 (   1 )
 Number of external orbitals:      84 (  84 )

 Memory could be reduced to 24.91 Mwords without degradation in triples

 Number of N-1 electron functions:              31
 Number of N-2 electron functions:             465
 Number of singly external CSFs:              2635
 Number of doubly external CSFs:           2537250
 Total number of CSFs:                     2539885

 Molecular orbitals read from record     2100.2  Type=RHF/CANONICAL (state 1.1)

 Integral transformation finished. Total CPU:   1.26 sec, npass=  1  Memory used:  12.63 MW

 Starting RMP2 calculation

 ITER.      SQ.NORM     CORR.ENERGY   TOTAL ENERGY   ENERGY CHANGE        DEN1      VAR(S)    VAR(P)  DIIS     TIME
   1      1.24297864    -0.78630313  -268.05176311    -0.78630313    -0.00304897  0.20D-04  0.11D-02  1  1     1.71
   2      1.24561926    -0.78959123  -268.05505121    -0.00328810    -0.00000475  0.54D-06  0.19D-05  2  2     2.09
   3      1.24568483    -0.78963331  -268.05509329    -0.00004208    -0.00000003  0.16D-07  0.68D-08  3  3     2.49
   4      1.24568579    -0.78963331  -268.05509329    -0.00000000    -0.00000000  0.27D-09  0.38D-10  4  4     2.92
   5      1.24568587    -0.78963334  -268.05509333    -0.00000003    -0.00000000  0.25D-11  0.65D-12  5  5     3.38
   6      1.24568588    -0.78963335  -268.05509333    -0.00000001    -0.00000000  0.28D-13  0.87D-14  6  6     3.87
   7      1.24568588    -0.78963335  -268.05509333     0.00000000    -0.00000000  0.47D-15  0.12D-15  6  1     4.37
   8      1.24568588    -0.78963335  -268.05509333     0.00000000    -0.00000000  0.59D-17  0.13D-17  6  2     4.87

 Norm of t1 vector:      0.03893666      S-energy:    -0.00227192      T1 diagnostic:  0.00055046
 Norm of t2 vector:      0.49413543      P-energy:    -0.78736142
                                         Alpha-Beta:  -0.59335861
                                         Alpha-Alpha: -0.10093194
                                         Beta-Beta:   -0.09307088

 Spin contamination <S**2-Sz**2-Sz>     0.00104074
  Reference energy                   -267.265459984123
  RHF-RMP2 correlation energy          -0.789633347353
 !RHF-RMP2 energy                    -268.055093331476

 Starting UCCSD calculation

 ITER.      SQ.NORM     CORR.ENERGY   TOTAL ENERGY   ENERGY CHANGE        DEN1      VAR(S)    VAR(P)  DIIS     TIME
   1      1.26276067    -0.80899073  -268.07445072    -0.80899073    -0.02514972  0.38D-02  0.59D-02  1  1    12.55
   2      1.29152736    -0.83639401  -268.10185399    -0.02740327    -0.00201001  0.22D-03  0.66D-03  2  2    20.28
   3      1.30146428    -0.84089006  -268.10635005    -0.00449605    -0.00032451  0.19D-03  0.56D-04  3  3    27.92
   4      1.30637576    -0.84236655  -268.10782654    -0.00147649    -0.00007207  0.43D-04  0.14D-04  4  4    35.62
   5      1.30910587    -0.84275472  -268.10821470    -0.00038816    -0.00002366  0.19D-04  0.32D-05  5  5    43.42
   6      1.31104472    -0.84295917  -268.10841915    -0.00020445    -0.00000645  0.42D-05  0.12D-05  6  6    51.14
   7      1.31199352    -0.84301793  -268.10847791    -0.00005876    -0.00000208  0.14D-05  0.37D-06  6  2    58.94
   8      1.31243485    -0.84306059  -268.10852057    -0.00004266    -0.00000065  0.45D-06  0.11D-06  6  1    66.71
   9      1.31262007    -0.84306517  -268.10852516    -0.00000458    -0.00000022  0.15D-06  0.35D-07  6  4    74.42
  10      1.31268330    -0.84306810  -268.10852808    -0.00000293    -0.00000005  0.35D-07  0.95D-08  6  3    82.19
  11      1.31271285    -0.84306685  -268.10852683     0.00000125    -0.00000002  0.13D-07  0.28D-08  6  5    89.96
  12      1.31272325    -0.84306659  -268.10852657     0.00000026    -0.00000000  0.26D-08  0.95D-09  6  6    97.67
  13      1.31272210    -0.84306567  -268.10852566     0.00000092    -0.00000000  0.96D-09  0.29D-09  6  2   105.38
  14      1.31271689    -0.84306483  -268.10852481     0.00000085    -0.00000000  0.21D-09  0.67D-10  6  1   113.17
  15      1.31271281    -0.84306424  -268.10852423     0.00000059    -0.00000000  0.78D-10  0.19D-10  6  4   120.98
  16      1.31270963    -0.84306386  -268.10852384     0.00000038    -0.00000000  0.28D-10  0.63D-11  6  3   128.77
  17      1.31270743    -0.84306362  -268.10852360     0.00000024    -0.00000000  0.10D-10  0.24D-11  6  5   136.48
  18      1.31270652    -0.84306356  -268.10852354     0.00000006    -0.00000000  0.41D-11  0.87D-12  6  6   144.17
  19      1.31270592    -0.84306353  -268.10852351     0.00000003    -0.00000000  0.16D-11  0.37D-12  6  2   151.91
  20      1.31270560    -0.84306351  -268.10852350     0.00000001    -0.00000000  0.60D-12  0.13D-12  6  1   159.66
  21      1.31270543    -0.84306350  -268.10852349     0.00000001    -0.00000000  0.28D-12  0.58D-13  6  4   167.38
  22      1.31270531    -0.84306350  -268.10852348     0.00000001    -0.00000000  0.74D-13  0.21D-13  6  3   175.10
  23      1.31270525    -0.84306349  -268.10852348     0.00000000    -0.00000000  0.21D-13  0.63D-14  6  5   182.92
  24      1.31270525    -0.84306349  -268.10852348    -0.00000000    -0.00000000  0.67D-14  0.23D-14  6  6   190.74
  25      1.31270525    -0.84306349  -268.10852348    -0.00000000    -0.00000000  0.21D-14  0.52D-15  6  2   198.55
  26      1.31270526    -0.84306350  -268.10852348    -0.00000000    -0.00000000  0.77D-15  0.15D-15  6  1   206.34
  27      1.31270527    -0.84306350  -268.10852348    -0.00000000    -0.00000000  0.20D-15  0.62D-16  6  3   214.20
  28      1.31270527    -0.84306350  -268.10852348    -0.00000000    -0.00000000  0.30D-16  0.11D-16  6  4   222.04
  29      1.31270527    -0.84306350  -268.10852348    -0.00000000    -0.00000000  0.71D-17  0.29D-17  6  5   229.85
  30      1.31270528    -0.84306350  -268.10852348    -0.00000000    -0.00000000  0.15D-17  0.54D-18  6  6   236.92
  31      1.31270528    -0.84306350  -268.10852348    -0.00000000    -0.00000000  0.35D-18  0.10D-18  6  2   243.39

 Norm of t1 vector:      0.13869662      S-energy:    -0.00282173      T1 diagnostic:  0.01616587
                                                                       D1 diagnostic:  0.06282660
 Norm of t2 vector:      0.54172735      P-energy:    -0.84024177
                                         Alpha-Beta:  -0.66480268
                                         Alpha-Alpha: -0.09147060
                                         Beta-Beta:   -0.08396849

 Spin contamination <S**2-Sz**2-Sz>     0.00217244

 Memory could be reduced to 28.85 Mwords without degradation in triples
 

 RESULTS
 =======

  Reference energy                   -267.265459984123
  UCCSD singles energy                 -0.002821728856
  UCCSD pair energy                    -0.840241767908
  UCCSD correlation energy             -0.843063496764
  Triples (T) contribution             -0.024970212774
  Total correlation energy             -0.868033709538
 
  RHF-UCCSD energy                   -268.108523480887
  RHF-UCCSD[T] energy                -268.134828640417
  RHF-UCCSD-T energy                 -268.133072647805
 !RHF-UCCSD(T) energy                -268.133493693661

 Program statistics:

 Available memory in ccsd:               999997692
 Min. memory needed in ccsd:               7337057
 Max. memory used in ccsd:                10523002
 Max. memory used in cckext:              10867977 (31 integral passes)
 Max. memory used in cckint:              12633073 ( 1 integral passes)



 **********************************************************************************************************************************
 DATASETS  * FILE   NREC   LENGTH (MB)   RECORD NAMES
              1      18        3.17       500      610      700      900      950      970     1000      129      960     1100   
                                          VAR    BASINP    GEOM    SYMINP    ZMAT    AOBASIS   BASIS     P2S    ABASIS      S 
                                         1400     1410     1200     1210     1080     1600     1650     1700   
                                           T        V       H0       H01     AOSYM     SMH    MOLCAS    OPER   

              2       3        0.77       700     1000     2100   
                                         GEOM     BASIS     RHF  

 PROGRAMS   *        TOTAL  UCCSD(T)       RHF       INT
 CPU TIMES  *       296.11    293.04      1.75      1.24
 REAL TIME  *       307.97 SEC
 DISK USED  *         1.30 GB      
 SF USED    *       553.73 MB      
 GA USED    *         0.00 MB       (max)       0.00 MB       (current)
 **********************************************************************************************************************************

        UCCSD(T)        RHF-SCF 
   -268.13349369   -267.26545998
 **********************************************************************************************************************************
 Variable memory released
