
 Primary working directories    : /tmp/320938.239.gen4.q
 Secondary working directories  : /tmp/320938.239.gen4.q
 Wavefunction directory         : /home/vulcan/mel64643/wfu/
 Main file repository           : /tmp/320938.239.gen4.q/

 ARCHNAME  : Linux/x86_64
 FC        : /opt/intel/compilers_and_libraries_2016.1.150/linux/bin/intel64/ifort
 FCVERSION : 16.0.1
 BLASLIB   : -mkl
 id        : ccgc

 Nodes     nprocs
 n024         3
 Number of processes for MPI-2 version of Molpro:   nprocs(total)=    4   nprocs(compute)=    3   nprocs(helper)=    1
 ga_uses_ma=false, calling ma_init with nominal heap.
 GA-space will be limited to   8.0 MW (determined by -G option)

 Using customized tuning parameters: mindgm=10; mindgv=16; mindgc=4; mindgr=1; noblas=0; mincuda=1000; minvec=7
 default implementation of scratch files=sf  

 ***,Frequencies for min3
 memory,1000,m
 gthresh,energy=1.0d-10,orbital=1.0d-10,oneint=1.0d-16,twoint=1.0d-16,optgrad=1.0d-6,compress=1.0d-13
 geomtyp=xyz
 
  geometry = {
  12
  arbitrary comment
     C    1.776964391707    0.711398808326   -0.047331391796
     C    0.491811976407   -0.060647109602   -0.196481536427
     C    0.450429566951   -1.536073088709    0.101361921777
     O   -0.561314605791    0.727355819471    0.254470347162
     O   -1.837509150055    0.092428036085   -0.120483264104
     H    2.585686674488    0.211549160144   -0.611569093754
     H    1.660779121206    1.742984488099   -0.426574690358
     H    2.095515169622    0.774090233139    1.017559886247
     H   -0.504587037995   -1.982641539294   -0.220155067782
     H    1.282168813418   -2.047100728343   -0.417304212515
     H    0.562131878804   -1.719100919606    1.194637720480
     H   -1.987740056142    0.551024736645   -0.966927052840
  }
 
 basis=cc-pvdz
 {rhf;maxit,200}
 {uccsd(t);maxit,200}

 Variables initialized (661), CPU time= 0.01 sec
 Commands  initialized (458), CPU time= 0.00 sec, 486 directives.
 Default parameters read. Elapsed time= 0.07 sec

 Checking input...
 Passed
1


                                         ***  PROGRAM SYSTEM MOLPRO  ***
                         Copyright, University College Cardiff Consultants Limited, 2008

                                    Version 2010.1 linked May 16 2016 07:17:05


 **********************************************************************************************************************************
 LABEL *   Frequencies for min3                                                          
 Linux-4.4.3/n024(x86_64) 64 bit mpp version                                             DATE: 07-Mar-20          TIME: 02:21:35  
 **********************************************************************************************************************************

 SHA1:             9e8077add272b0f3cad6f7df79ec5211205f459d
 **********************************************************************************************************************************

 THRESHOLDS:

 ZERO    =  1.00D-12  ONEINT  =  1.00D-16  TWOINT  =  1.00D-16  PREFAC  =  1.00D-14  LOCALI  =  1.00D-09  EORDER  =  1.00D-04
 ENERGY  =  1.00D-10  ETEST   =  0.00D+00  EDENS   =  0.00D+00  THRDEDEF=  1.00D-06  GRADIENT=  1.00D-02  STEP    =  1.00D-03
 ORBITAL =  1.00D-10  CIVEC   =  1.00D-05  COEFF   =  1.00D-04  PRINTCI =  5.00D-02  PUNCHCI =  9.90D+01  OPTGRAD =  1.00D-06
 OPTENERG=  1.00D-06  OPTSTEP =  3.00D-04  THRGRAD =  1.00D-10  COMPRESS=  1.00D-13  VARMIN  =  1.00D-07  VARMAX  =  1.00D-03
 THRDOUB =  0.00D+00  THRDIV  =  1.00D-05  THRRED  =  1.00D-07  THRPSP  =  1.00D+00  THRDC   =  1.00D-10  THRCS   =  1.00D-10
 THRNRM  =  1.00D-08  THREQ   =  0.00D+00  THRDE   =  1.00D+00  THRREF  =  1.00D-05  SPARFAC =  1.00D+00  THRDLP  =  1.00D-07
 THRDIA  =  1.00D-10  THRDLS  =  1.00D-07  THRGPS  =  0.00D+00  THRKEX  =  0.00D+00  THRDIS  =  2.00D-01  THRVAR  =  1.00D-10
 THRLOC  =  1.00D-06  THRGAP  =  1.00D-06  THRLOCT = -1.00D+00  THRGAPT = -1.00D+00  THRORB  =  1.00D-06  THRMLTP =  0.00D+00
 THRCPQCI=  1.00D-10  KEXTA   =  0.00D+00  THRCOARS=  0.00D+00  SYMTOL  =  1.00D-06  GRADTOL =  1.00D-06  THROVL  =  1.00D-08
 THRORTH =  1.00D-08  GRID    =  1.00D-06  GRIDMAX =  1.00D-03  DTMAX   =  0.00D+00

 SETTING GEOMTYP        =    XYZ

 Variable memory set to 1000000000 words,  buffer space   230000 words

 SETTING BASIS          =    CC-PVDZ


 Recomputing integrals since basis changed


 Using spherical harmonics

 Library entry C      S cc-pVDZ              selected for orbital group  1
 Library entry C      P cc-pVDZ              selected for orbital group  1
 Library entry C      D cc-pVDZ              selected for orbital group  1
 Library entry O      S cc-pVDZ              selected for orbital group  2
 Library entry O      P cc-pVDZ              selected for orbital group  2
 Library entry O      D cc-pVDZ              selected for orbital group  2
 Library entry H      S cc-pVDZ              selected for orbital group  3
 Library entry H      P cc-pVDZ              selected for orbital group  3

1PROGRAM * SEWARD (Integral evaluation for generally contracted gaussian basis sets)     Author: Roland Lindh, 1990

 Geometry written to block  1 of record 700


 Point group  C1  



 ATOMIC COORDINATES

 NR  ATOM    CHARGE       X              Y              Z

   1  C       6.00    3.357976046    1.344348918   -0.089443368
   2  C       6.00    0.929389944   -0.114606428   -0.371296294
   3  C       6.00    0.851188523   -2.902757456    0.191546272
   4  O       8.00   -1.060730879    1.374503299    0.480879265
   5  O       8.00   -3.472389058    0.174663675   -0.227680373
   6  H       1.00    4.886239676    0.399769976   -1.155698098
   7  H       1.00    3.138417704    3.293763334   -0.806109339
   8  H       1.00    3.959949775    1.462818542    1.922909507
   9  H       1.00   -0.953531311   -3.746649526   -0.416032785
  10  H       1.00    2.422947912   -3.868459740   -0.788590675
  11  H       1.00    1.062275301   -3.248629930    2.257538118
  12  H       1.00   -3.756284327    1.041285844   -1.827227319

 Bond lengths in Bohr (Angstrom)

 1-2  2.847107695  1-6  2.089190813  1-7  2.088547951  1-8  2.103799305  2-3  2.845468919
     ( 1.506624504)     ( 1.105552163)     ( 1.105211976)     ( 1.113282645)     ( 1.505757301)

  2- 4  2.627590502   3- 9  2.082863370   3-10  2.088941577   3-11  2.105352156   4- 5  2.785276836
       ( 1.390461008)       ( 1.102203825)       ( 1.105420274)       ( 1.114104378)       ( 1.473905023)

  5-12  1.841244400
       ( 0.974344573)

 Bond angles

  1-2-3  120.39596585   1-2-4  108.87741623   2-1-6  109.98469397   2-1-7  110.77235717

  2- 1- 8  111.56916914   2- 3- 9  111.29138211   2- 3-10  109.84593247   2- 3-11  110.62945788

  2- 4- 5  109.21781210   3- 2- 4  118.05626503   4- 5-12   98.72828937   6- 1- 7  108.89163271

  6- 1- 8  107.71795942   7- 1- 8  107.80296581   9- 3-10  109.13355573   9- 3-11  107.85220538

 10- 3-11  108.00169615

 NUCLEAR CHARGE:                   41
 NUMBER OF PRIMITIVE AOS:         184
 NUMBER OF SYMMETRY AOS:          179
 NUMBER OF CONTRACTIONS:          105   ( 105A   )
 NUMBER OF CORE ORBITALS:           5   (   5A   )
 NUMBER OF VALENCE ORBITALS:       27   (  27A   )


 NUCLEAR REPULSION ENERGY  183.22741815


 Eigenvalues of metric

         1 0.345E-02 0.435E-02 0.105E-01 0.141E-01 0.182E-01 0.214E-01 0.331E-01 0.346E-01


 Contracted 2-electron integrals neglected if value below      1.0D-16
 AO integral compression algorithm  1   Integral accuracy      1.0D-16

     127.402 MB (compressed) written to integral file ( 93.4%)

     Node minimum: 41.157 MB, node maximum: 44.040 MB


 NUMBER OF SORTED TWO-ELECTRON INTEGRALS:    5164320.     BUFFER LENGTH:  32768
 NUMBER OF SEGMENTS:   1  SEGMENT LENGTH:    5164320      RECORD LENGTH: 524288

 Memory used in sort:       5.72 MW

 SORT1 READ    17075251. AND WROTE     5135914. INTEGRALS IN     15 RECORDS. CPU TIME:     0.23 SEC, REAL TIME:     0.28 SEC
 SORT2 READ    15396636. AND WROTE    15487395. INTEGRALS IN    471 RECORDS. CPU TIME:     0.07 SEC, REAL TIME:     0.12 SEC

 Node minimum:     5160610.  Node maximum:     5164320. integrals

 OPERATOR DM      FOR CENTER  0  COORDINATES:    0.000000    0.000000    0.000000


 **********************************************************************************************************************************
 DATASETS  * FILE   NREC   LENGTH (MB)   RECORD NAMES
              1      18        3.17       500      610      700      900      950      970     1000      129      960     1100   
                                          VAR    BASINP    GEOM    SYMINP    ZMAT    AOBASIS   BASIS     P2S    ABASIS      S 
                                         1400     1410     1200     1210     1080     1600     1650     1700   
                                           T        V       H0       H01     AOSYM     SMH    MOLCAS    OPER   

 PROGRAMS   *        TOTAL       INT
 CPU TIMES  *         1.31      1.22
 REAL TIME  *         1.63 SEC
 DISK USED  *       305.44 MB      
 GA USED    *         0.00 MB       (max)       0.00 MB       (current)
 **********************************************************************************************************************************

1PROGRAM * RHF-SCF (OPEN SHELL)       Authors: W. Meyer, H.-J. Werner


 NUMBER OF ELECTRONS:      21+   20-    SPACE SYMMETRY=1    SPIN SYMMETRY: Doublet 
 CONVERGENCE THRESHOLDS:    1.00E-10 (Density)    1.00E-11 (Energy)
 MAX. NUMBER OF ITERATIONS:      200
 INTERPOLATION TYPE:            DIIS
 INTERPOLATION STEPS:              2 (START)      1 (STEP)
 LEVEL SHIFTS:                 -0.30 (CLOSED)  0.00 (OPEN) 



 Orbital guess generated from atomic densities. Full valence occupancy:   32

 Molecular orbital dump at record        2100.2

 ITERATION    DDIFF          GRAD             ENERGY        2-EL.EN.            DIPOLE MOMENTS         DIIS
    1      0.000D+00      0.000D+00      -267.17840775    555.826876    0.56807    0.04804   -0.74909    0
    2      0.000D+00      0.617D-02      -267.24905578    555.751803    0.41473   -0.13231   -0.59938    1
    3      0.927D-02      0.214D-02      -267.26119352    555.668778    0.39437   -0.06033   -0.62629    2
    4      0.336D-02      0.911D-03      -267.26477436    555.821108    0.38015   -0.10041   -0.64260    3
    5      0.186D-02      0.363D-03      -267.26533590    555.792451    0.38272   -0.09388   -0.63548    4
    6      0.789D-03      0.109D-03      -267.26541060    555.778601    0.38100   -0.09367   -0.63817    5
    7      0.275D-03      0.505D-04      -267.26543016    555.775640    0.38031   -0.09341   -0.63764    6
    8      0.142D-03      0.269D-04      -267.26543606    555.773670    0.38059   -0.09352   -0.63784    7
    9      0.911D-04      0.114D-04      -267.26543696    555.773993    0.38078   -0.09348   -0.63760    8
   10      0.362D-04      0.495D-05      -267.26543711    555.774594    0.38104   -0.09350   -0.63766    9
   11      0.145D-04      0.194D-05      -267.26543714    555.774440    0.38109   -0.09349   -0.63767    9
   12      0.643D-05      0.665D-06      -267.26543714    555.774574    0.38111   -0.09349   -0.63766    9
   13      0.226D-05      0.224D-06      -267.26543714    555.774490    0.38111   -0.09349   -0.63766    9
   14      0.629D-06      0.750D-07      -267.26543714    555.774499    0.38111   -0.09349   -0.63766    9
   15      0.191D-06      0.296D-07      -267.26543714    555.774495    0.38111   -0.09349   -0.63766    9
   16      0.814D-07      0.143D-07      -267.26543714    555.774496    0.38111   -0.09349   -0.63766    9
   17      0.368D-07      0.739D-08      -267.26543714    555.774496    0.38111   -0.09349   -0.63766    9
   18      0.218D-07      0.337D-08      -267.26543714    555.774497    0.38111   -0.09349   -0.63766    9
   19      0.113D-07      0.131D-08      -267.26543714    555.774497    0.38111   -0.09349   -0.63766    9
   20      0.438D-08      0.554D-09      -267.26543714    555.774497    0.38111   -0.09349   -0.63766    9
   21      0.162D-08      0.280D-09      -267.26543714    555.774497    0.38111   -0.09349   -0.63766    9
   22      0.733D-09      0.158D-09      -267.26543714    555.774497    0.38111   -0.09349   -0.63766    9
   23      0.437D-09      0.779D-10      -267.26543714    555.774497    0.38111   -0.09349   -0.63766    9
   24      0.258D-09      0.309D-10      -267.26543714    555.774497    0.38111   -0.09349   -0.63766    9
   25      0.909D-10      0.126D-10      -267.26543714    555.774497    0.38111   -0.09349   -0.63766    0

 Final alpha occupancy:  21
 Final beta  occupancy:  20

 !RHF STATE 1.1 Energy               -267.265437139436
 Nuclear energy                       183.22741815
 One-electron energy                 -728.38010358
 Two-electron energy                  277.88724829
 Virial quotient                       -1.00155487
 !RHF STATE 1.1 Dipole moment           0.38111088    -0.09349383    -0.63766310
 Dipole moment /Debye                   0.96862378    -0.23762205    -1.62067177

 Orbital energies:

         1.1          2.1          3.1          4.1          5.1          6.1          7.1          8.1          9.1         10.1
    -20.630369   -20.628676   -11.279324   -11.237942   -11.232212    -1.470291    -1.240344    -1.023339    -0.945384    -0.768412

        11.1         12.1         13.1         14.1         15.1         16.1         17.1         18.1         19.1         20.1
     -0.704640    -0.643087    -0.626769    -0.588704    -0.545201    -0.543427    -0.538960    -0.516867    -0.492741    -0.469888

        21.1         22.1         23.1
     -0.352452     0.181294     0.183701


 **********************************************************************************************************************************
 DATASETS  * FILE   NREC   LENGTH (MB)   RECORD NAMES
              1      18        3.17       500      610      700      900      950      970     1000      129      960     1100   
                                          VAR    BASINP    GEOM    SYMINP    ZMAT    AOBASIS   BASIS     P2S    ABASIS      S 
                                         1400     1410     1200     1210     1080     1600     1650     1700   
                                           T        V       H0       H01     AOSYM     SMH    MOLCAS    OPER   

              2       3        0.77       700     1000     2100   
                                         GEOM     BASIS     RHF  

 PROGRAMS   *        TOTAL       RHF       INT
 CPU TIMES  *         2.62      1.31      1.22
 REAL TIME  *         3.08 SEC
 DISK USED  *       322.00 MB      
 SF USED    *         0.04 MB      
 GA USED    *         0.00 MB       (max)       0.00 MB       (current)
 **********************************************************************************************************************************


1PROGRAM * CCSD (Unrestricted open-shell coupled cluster)     Authors: C. Hampel, H.-J. Werner, 1991, M. Deegan, P.J. Knowles, 1992


 Convergence thresholds:  THRVAR = 1.00D-08  THRDEN = 1.00D-10

 CCSD(T)     terms to be evaluated (factor= 1.000)


 Number of core orbitals:           5 (   5 )
 Number of closed-shell orbitals:  15 (  15 )
 Number of active  orbitals:        1 (   1 )
 Number of external orbitals:      84 (  84 )

 Memory could be reduced to 24.91 Mwords without degradation in triples

 Number of N-1 electron functions:              31
 Number of N-2 electron functions:             465
 Number of singly external CSFs:              2635
 Number of doubly external CSFs:           2537250
 Total number of CSFs:                     2539885

 Molecular orbitals read from record     2100.2  Type=RHF/CANONICAL (state 1.1)

 Integral transformation finished. Total CPU:   1.14 sec, npass=  1  Memory used:  12.63 MW

 Starting RMP2 calculation

 ITER.      SQ.NORM     CORR.ENERGY   TOTAL ENERGY   ENERGY CHANGE        DEN1      VAR(S)    VAR(P)  DIIS     TIME
   1      1.24299244    -0.78633724  -268.05177438    -0.78633724    -0.00304915  0.20D-04  0.11D-02  1  1     1.50
   2      1.24563260    -0.78962551  -268.05506265    -0.00328827    -0.00000474  0.54D-06  0.19D-05  2  2     1.84
   3      1.24569806    -0.78966754  -268.05510468    -0.00004202    -0.00000003  0.16D-07  0.68D-08  3  3     2.21
   4      1.24569901    -0.78966754  -268.05510468    -0.00000000    -0.00000000  0.27D-09  0.38D-10  4  4     2.61
   5      1.24569910    -0.78966757  -268.05510471    -0.00000003    -0.00000000  0.25D-11  0.65D-12  5  5     3.04
   6      1.24569911    -0.78966758  -268.05510471    -0.00000001    -0.00000000  0.28D-13  0.86D-14  6  6     3.50
   7      1.24569911    -0.78966758  -268.05510471     0.00000000    -0.00000000  0.47D-15  0.12D-15  6  1     3.96
   8      1.24569911    -0.78966758  -268.05510471     0.00000000    -0.00000000  0.59D-17  0.13D-17  6  2     4.42

 Norm of t1 vector:      0.03892749      S-energy:    -0.00227121      T1 diagnostic:  0.00055017
 Norm of t2 vector:      0.49414953      P-energy:    -0.78739636
                                         Alpha-Beta:  -0.59338503
                                         Alpha-Alpha: -0.10093610
                                         Beta-Beta:   -0.09307523

 Spin contamination <S**2-Sz**2-Sz>     0.00104007
  Reference energy                   -267.265437139437
  RHF-RMP2 correlation energy          -0.789667575257
 !RHF-RMP2 energy                    -268.055104714694

 Starting UCCSD calculation

 ITER.      SQ.NORM     CORR.ENERGY   TOTAL ENERGY   ENERGY CHANGE        DEN1      VAR(S)    VAR(P)  DIIS     TIME
   1      1.26277554    -0.80902275  -268.07445989    -0.80902275    -0.02515059  0.38D-02  0.59D-02  1  1    11.12
   2      1.29153993    -0.83642782  -268.10186496    -0.02740507    -0.00200971  0.22D-03  0.66D-03  2  2    17.84
   3      1.30147191    -0.84092331  -268.10636045    -0.00449548    -0.00032431  0.19D-03  0.56D-04  3  3    24.62
   4      1.30637605    -0.84239904  -268.10783618    -0.00147573    -0.00007191  0.43D-04  0.14D-04  4  4    31.38
   5      1.30909819    -0.84278648  -268.10822361    -0.00038744    -0.00002357  0.19D-04  0.32D-05  5  5    38.15
   6      1.31102761    -0.84299021  -268.10842735    -0.00020374    -0.00000640  0.42D-05  0.12D-05  6  6    44.97
   7      1.31196919    -0.84304862  -268.10848576    -0.00005841    -0.00000205  0.14D-05  0.36D-06  6  2    51.80
   8      1.31240505    -0.84309094  -268.10852808    -0.00004232    -0.00000064  0.44D-06  0.11D-06  6  1    58.62
   9      1.31258662    -0.84309539  -268.10853253    -0.00000445    -0.00000022  0.15D-06  0.34D-07  6  4    65.45
  10      1.31264835    -0.84309828  -268.10853541    -0.00000288    -0.00000005  0.34D-07  0.93D-08  6  3    72.28
  11      1.31267717    -0.84309699  -268.10853413     0.00000128    -0.00000002  0.13D-07  0.27D-08  6  5    79.09
  12      1.31268726    -0.84309672  -268.10853386     0.00000027    -0.00000000  0.25D-08  0.94D-09  6  6    85.93
  13      1.31268610    -0.84309581  -268.10853295     0.00000091    -0.00000000  0.95D-09  0.28D-09  6  2    92.78
  14      1.31268094    -0.84309498  -268.10853212     0.00000083    -0.00000000  0.20D-09  0.66D-10  6  1    99.62
  15      1.31267691    -0.84309440  -268.10853154     0.00000058    -0.00000000  0.77D-10  0.19D-10  6  4   106.44
  16      1.31267375    -0.84309402  -268.10853116     0.00000038    -0.00000000  0.27D-10  0.61D-11  6  3   113.25
  17      1.31267158    -0.84309378  -268.10853092     0.00000024    -0.00000000  0.98D-11  0.23D-11  6  5   120.08
  18      1.31267069    -0.84309372  -268.10853086     0.00000006    -0.00000000  0.39D-11  0.85D-12  6  6   126.90
  19      1.31267010    -0.84309369  -268.10853083     0.00000003    -0.00000000  0.15D-11  0.36D-12  6  2   133.75
  20      1.31266979    -0.84309368  -268.10853082     0.00000001    -0.00000000  0.58D-12  0.13D-12  6  1   140.58
  21      1.31266963    -0.84309367  -268.10853081     0.00000001    -0.00000000  0.27D-12  0.56D-13  6  4   147.40
  22      1.31266951    -0.84309366  -268.10853080     0.00000001    -0.00000000  0.71D-13  0.21D-13  6  3   154.23
  23      1.31266945    -0.84309365  -268.10853079     0.00000000    -0.00000000  0.21D-13  0.61D-14  6  5   161.07
  24      1.31266945    -0.84309366  -268.10853080    -0.00000000    -0.00000000  0.65D-14  0.22D-14  6  6   167.91
  25      1.31266945    -0.84309366  -268.10853080    -0.00000000    -0.00000000  0.20D-14  0.51D-15  6  2   174.74
  26      1.31266946    -0.84309366  -268.10853080    -0.00000000    -0.00000000  0.74D-15  0.15D-15  6  1   181.58
  27      1.31266947    -0.84309366  -268.10853080    -0.00000000    -0.00000000  0.19D-15  0.60D-16  6  3   188.40
  28      1.31266947    -0.84309366  -268.10853080    -0.00000000    -0.00000000  0.28D-16  0.10D-16  6  4   195.23
  29      1.31266947    -0.84309366  -268.10853080    -0.00000000    -0.00000000  0.68D-17  0.28D-17  6  5   202.06
  30      1.31266948    -0.84309366  -268.10853080    -0.00000000    -0.00000000  0.14D-17  0.52D-18  6  6   208.90
  31      1.31266948    -0.84309366  -268.10853080    -0.00000000    -0.00000000  0.34D-18  0.10D-18  6  2   215.74

 Norm of t1 vector:      0.13857298      S-energy:    -0.00282019      T1 diagnostic:  0.01615290
                                                                       D1 diagnostic:  0.06282692
 Norm of t2 vector:      0.54172595      P-energy:    -0.84027347
                                         Alpha-Beta:  -0.66483163
                                         Alpha-Alpha: -0.09147174
                                         Beta-Beta:   -0.08397010

 Spin contamination <S**2-Sz**2-Sz>     0.00215528

 Memory could be reduced to 28.85 Mwords without degradation in triples
 

 RESULTS
 =======

  Reference energy                   -267.265437139437
  UCCSD singles energy                 -0.002820193016
  UCCSD pair energy                    -0.840273466004
  UCCSD correlation energy             -0.843093659020
  Triples (T) contribution             -0.024965914214
  Total correlation energy             -0.868059573234
 
  RHF-UCCSD energy                   -268.108530798457
  RHF-UCCSD[T] energy                -268.134832115587
  RHF-UCCSD-T energy                 -268.133074711703
 !RHF-UCCSD(T) energy                -268.133496712670

 Program statistics:

 Available memory in ccsd:               999997692
 Min. memory needed in ccsd:               7337057
 Max. memory used in ccsd:                10523002
 Max. memory used in cckext:              10867977 (31 integral passes)
 Max. memory used in cckint:              12633073 ( 1 integral passes)



 **********************************************************************************************************************************
 DATASETS  * FILE   NREC   LENGTH (MB)   RECORD NAMES
              1      18        3.17       500      610      700      900      950      970     1000      129      960     1100   
                                          VAR    BASINP    GEOM    SYMINP    ZMAT    AOBASIS   BASIS     P2S    ABASIS      S 
                                         1400     1410     1200     1210     1080     1600     1650     1700   
                                           T        V       H0       H01     AOSYM     SMH    MOLCAS    OPER   

              2       3        0.77       700     1000     2100   
                                         GEOM     BASIS     RHF  

 PROGRAMS   *        TOTAL  UCCSD(T)       RHF       INT
 CPU TIMES  *       278.81    276.19      1.31      1.22
 REAL TIME  *       291.73 SEC
 DISK USED  *         1.29 GB      
 SF USED    *       553.73 MB      
 GA USED    *         0.00 MB       (max)       0.00 MB       (current)
 **********************************************************************************************************************************

        UCCSD(T)        RHF-SCF 
   -268.13349671   -267.26543714
 **********************************************************************************************************************************
 Variable memory released
