
 Primary working directories    : /tmp/320938.185.gen6.q
 Secondary working directories  : /tmp/320938.185.gen6.q
 Wavefunction directory         : /home/vulcan/mel64643/wfu/
 Main file repository           : /tmp/320938.185.gen6.q/

 ARCHNAME  : Linux/x86_64
 FC        : /opt/intel/compilers_and_libraries_2016.1.150/linux/bin/intel64/ifort
 FCVERSION : 16.0.1
 BLASLIB   : -mkl
 id        : ccgc

 Nodes     nprocs
 n076         3
 Number of processes for MPI-2 version of Molpro:   nprocs(total)=    4   nprocs(compute)=    3   nprocs(helper)=    1
 ga_uses_ma=false, calling ma_init with nominal heap.
 GA-space will be limited to   8.0 MW (determined by -G option)

 Using customized tuning parameters: mindgm=10; mindgv=16; mindgc=4; mindgr=1; noblas=0; mincuda=1000; minvec=7
 default implementation of scratch files=sf  

 ***,Frequencies for min3
 memory,1000,m
 gthresh,energy=1.0d-10,orbital=1.0d-10,oneint=1.0d-16,twoint=1.0d-16,optgrad=1.0d-6,compress=1.0d-13
 geomtyp=xyz
 
  geometry = {
  12
  arbitrary comment
     C    1.776964391707    0.711398808326   -0.047331391796
     C    0.491811976407   -0.059992870174   -0.196493901896
     C    0.450332819107   -1.536294019674    0.101417522804
     O   -0.560767745493    0.727234937526    0.254453964104
     O   -1.837840335593    0.092269037726   -0.120531795196
     H    2.585373063107    0.211465914126   -0.611440883996
     H    1.660426393907    1.742887987326   -0.426532369096
     H    2.095123485707    0.774048097326    1.018846295162
     H   -0.505234513190   -1.982773635714   -0.219340973815
     H    1.281320661303   -2.048068022004   -0.418036500466
     H    0.562855860499   -1.718072565914    1.194201644657
     H   -1.988181342884    0.550600229536   -0.967514286716
  }
 
 basis=cc-pvdz
 {rhf;maxit,200}
 {uccsd(t);maxit,200}

 Variables initialized (661), CPU time= 0.00 sec
 Commands  initialized (458), CPU time= 0.01 sec, 486 directives.
 Default parameters read. Elapsed time= 0.05 sec

 Checking input...
 Passed
1


                                         ***  PROGRAM SYSTEM MOLPRO  ***
                         Copyright, University College Cardiff Consultants Limited, 2008

                                    Version 2010.1 linked May 16 2016 07:17:05


 **********************************************************************************************************************************
 LABEL *   Frequencies for min3                                                          
 Linux-4.4.3/n076(x86_64) 64 bit mpp version                                             DATE: 07-Mar-20          TIME: 02:02:34  
 **********************************************************************************************************************************

 SHA1:             9e8077add272b0f3cad6f7df79ec5211205f459d
 **********************************************************************************************************************************

 THRESHOLDS:

 ZERO    =  1.00D-12  ONEINT  =  1.00D-16  TWOINT  =  1.00D-16  PREFAC  =  1.00D-14  LOCALI  =  1.00D-09  EORDER  =  1.00D-04
 ENERGY  =  1.00D-10  ETEST   =  0.00D+00  EDENS   =  0.00D+00  THRDEDEF=  1.00D-06  GRADIENT=  1.00D-02  STEP    =  1.00D-03
 ORBITAL =  1.00D-10  CIVEC   =  1.00D-05  COEFF   =  1.00D-04  PRINTCI =  5.00D-02  PUNCHCI =  9.90D+01  OPTGRAD =  1.00D-06
 OPTENERG=  1.00D-06  OPTSTEP =  3.00D-04  THRGRAD =  1.00D-10  COMPRESS=  1.00D-13  VARMIN  =  1.00D-07  VARMAX  =  1.00D-03
 THRDOUB =  0.00D+00  THRDIV  =  1.00D-05  THRRED  =  1.00D-07  THRPSP  =  1.00D+00  THRDC   =  1.00D-10  THRCS   =  1.00D-10
 THRNRM  =  1.00D-08  THREQ   =  0.00D+00  THRDE   =  1.00D+00  THRREF  =  1.00D-05  SPARFAC =  1.00D+00  THRDLP  =  1.00D-07
 THRDIA  =  1.00D-10  THRDLS  =  1.00D-07  THRGPS  =  0.00D+00  THRKEX  =  0.00D+00  THRDIS  =  2.00D-01  THRVAR  =  1.00D-10
 THRLOC  =  1.00D-06  THRGAP  =  1.00D-06  THRLOCT = -1.00D+00  THRGAPT = -1.00D+00  THRORB  =  1.00D-06  THRMLTP =  0.00D+00
 THRCPQCI=  1.00D-10  KEXTA   =  0.00D+00  THRCOARS=  0.00D+00  SYMTOL  =  1.00D-06  GRADTOL =  1.00D-06  THROVL  =  1.00D-08
 THRORTH =  1.00D-08  GRID    =  1.00D-06  GRIDMAX =  1.00D-03  DTMAX   =  0.00D+00

 SETTING GEOMTYP        =    XYZ

 Variable memory set to 1000000000 words,  buffer space   230000 words

 SETTING BASIS          =    CC-PVDZ


 Recomputing integrals since basis changed


 Using spherical harmonics

 Library entry C      S cc-pVDZ              selected for orbital group  1
 Library entry C      P cc-pVDZ              selected for orbital group  1
 Library entry C      D cc-pVDZ              selected for orbital group  1
 Library entry O      S cc-pVDZ              selected for orbital group  2
 Library entry O      P cc-pVDZ              selected for orbital group  2
 Library entry O      D cc-pVDZ              selected for orbital group  2
 Library entry H      S cc-pVDZ              selected for orbital group  3
 Library entry H      P cc-pVDZ              selected for orbital group  3

1PROGRAM * SEWARD (Integral evaluation for generally contracted gaussian basis sets)     Author: Roland Lindh, 1990

 Geometry written to block  1 of record 700


 Point group  C1  



 ATOMIC COORDINATES

 NR  ATOM    CHARGE       X              Y              Z

   1  C       6.00    3.357976046    1.344348918   -0.089443368
   2  C       6.00    0.929389944   -0.113370094   -0.371319661
   3  C       6.00    0.851005696   -2.903174955    0.191651343
   4  O       8.00   -1.059697462    1.374274865    0.480848305
   5  O       8.00   -3.473014908    0.174363212   -0.227772083
   6  H       1.00    4.885647037    0.399612664   -1.155455816
   7  H       1.00    3.137751146    3.293580974   -0.806029364
   8  H       1.00    3.959209599    1.462738916    1.925340468
   9  H       1.00   -0.954754862   -3.746899152   -0.414494370
  10  H       1.00    2.421345136   -3.870287660   -0.789974499
  11  H       1.00    1.063643428   -3.246686623    2.256714054
  12  H       1.00   -3.757118238    1.040483642   -1.828337030

 Bond lengths in Bohr (Angstrom)

 1-2  2.846476668  1-6  2.088704811  1-7  2.088420481  1-8  2.105908802  2-3  2.847119878
     ( 1.506290578)     ( 1.105294982)     ( 1.105144521)     ( 1.114398942)     ( 1.506630951)

  2- 4  2.625975338   3- 9  2.083279708   3-10  2.089225272   3-11  2.104209845   4- 5  2.786760112
       ( 1.389606300)       ( 1.102424141)       ( 1.105570398)       ( 1.113499893)       ( 1.474689938)

  5-12  1.841924931
       ( 0.974704694)

 Bond angles

  1-2-3  120.37866573   1-2-4  108.90555081   2-1-6  109.98947225   2-1-7  110.73429490

  2- 1- 8  111.53785296   2- 3- 9  111.29541188   2- 3-10  109.87611134   2- 3-11  110.56293832

  2- 4- 5  109.23946113   3- 2- 4  118.03986083   4- 5-12   98.74668750   6- 1- 7  108.91518355

  6- 1- 8  107.75221771   7- 1- 8  107.81297017   9- 3-10  109.10662938   9- 3-11  107.87976149

 10- 3-11  108.03426654

 NUCLEAR CHARGE:                   41
 NUMBER OF PRIMITIVE AOS:         184
 NUMBER OF SYMMETRY AOS:          179
 NUMBER OF CONTRACTIONS:          105   ( 105A   )
 NUMBER OF CORE ORBITALS:           5   (   5A   )
 NUMBER OF VALENCE ORBITALS:       27   (  27A   )


 NUCLEAR REPULSION ENERGY  183.21776106


 Eigenvalues of metric

         1 0.345E-02 0.435E-02 0.105E-01 0.141E-01 0.182E-01 0.214E-01 0.331E-01 0.346E-01


 Contracted 2-electron integrals neglected if value below      1.0D-16
 AO integral compression algorithm  1   Integral accuracy      1.0D-16

     127.402 MB (compressed) written to integral file ( 93.4%)

     Node minimum: 34.865 MB, node maximum: 56.099 MB


 NUMBER OF SORTED TWO-ELECTRON INTEGRALS:    5164320.     BUFFER LENGTH:  32768
 NUMBER OF SEGMENTS:   1  SEGMENT LENGTH:    5164320      RECORD LENGTH: 524288

 Memory used in sort:       5.72 MW

 SORT1 READ    17075332. AND WROTE     5135895. INTEGRALS IN     15 RECORDS. CPU TIME:     0.31 SEC, REAL TIME:     0.34 SEC
 SORT2 READ    15396606. AND WROTE    15487395. INTEGRALS IN    399 RECORDS. CPU TIME:     0.08 SEC, REAL TIME:     0.13 SEC

 Node minimum:     5160610.  Node maximum:     5164320. integrals

 OPERATOR DM      FOR CENTER  0  COORDINATES:    0.000000    0.000000    0.000000


 **********************************************************************************************************************************
 DATASETS  * FILE   NREC   LENGTH (MB)   RECORD NAMES
              1      18        3.17       500      610      700      900      950      970     1000      129      960     1100   
                                          VAR    BASINP    GEOM    SYMINP    ZMAT    AOBASIS   BASIS     P2S    ABASIS      S 
                                         1400     1410     1200     1210     1080     1600     1650     1700   
                                           T        V       H0       H01     AOSYM     SMH    MOLCAS    OPER   

 PROGRAMS   *        TOTAL       INT
 CPU TIMES  *         1.11      1.04
 REAL TIME  *         1.52 SEC
 DISK USED  *       317.81 MB      
 GA USED    *         0.00 MB       (max)       0.00 MB       (current)
 **********************************************************************************************************************************

1PROGRAM * RHF-SCF (OPEN SHELL)       Authors: W. Meyer, H.-J. Werner


 NUMBER OF ELECTRONS:      21+   20-    SPACE SYMMETRY=1    SPIN SYMMETRY: Doublet 
 CONVERGENCE THRESHOLDS:    1.00E-10 (Density)    1.00E-11 (Energy)
 MAX. NUMBER OF ITERATIONS:      200
 INTERPOLATION TYPE:            DIIS
 INTERPOLATION STEPS:              2 (START)      1 (STEP)
 LEVEL SHIFTS:                 -0.30 (CLOSED)  0.00 (OPEN) 



 Orbital guess generated from atomic densities. Full valence occupancy:   32

 Molecular orbital dump at record        2100.2

 ITERATION    DDIFF          GRAD             ENERGY        2-EL.EN.            DIPOLE MOMENTS         DIIS
    1      0.000D+00      0.000D+00      -267.17822387    555.811267    0.57033    0.04908   -0.74973    0
    2      0.000D+00      0.617D-02      -267.24889116    555.731742    0.41384   -0.13143   -0.59922    1
    3      0.927D-02      0.214D-02      -267.26106749    555.649985    0.39349   -0.05955   -0.62655    2
    4      0.336D-02      0.912D-03      -267.26467537    555.802059    0.37885   -0.09970   -0.64292    3
    5      0.186D-02      0.363D-03      -267.26524455    555.773401    0.38138   -0.09321   -0.63589    4
    6      0.792D-03      0.110D-03      -267.26532101    555.759654    0.37964   -0.09301   -0.63863    5
    7      0.277D-03      0.511D-04      -267.26534115    555.756639    0.37893   -0.09275   -0.63812    6
    8      0.144D-03      0.273D-04      -267.26534721    555.754692    0.37920   -0.09287   -0.63833    7
    9      0.924D-04      0.115D-04      -267.26534813    555.755007    0.37939   -0.09282   -0.63809    8
   10      0.366D-04      0.501D-05      -267.26534829    555.755619    0.37965   -0.09284   -0.63815    9
   11      0.147D-04      0.196D-05      -267.26534831    555.755461    0.37970   -0.09283   -0.63816    9
   12      0.651D-05      0.671D-06      -267.26534832    555.755595    0.37972   -0.09283   -0.63816    9
   13      0.227D-05      0.226D-06      -267.26534832    555.755511    0.37972   -0.09283   -0.63815    9
   14      0.632D-06      0.758D-07      -267.26534832    555.755520    0.37972   -0.09283   -0.63815    9
   15      0.193D-06      0.300D-07      -267.26534832    555.755516    0.37972   -0.09283   -0.63815    9
   16      0.824D-07      0.145D-07      -267.26534832    555.755517    0.37972   -0.09283   -0.63815    9
   17      0.374D-07      0.750D-08      -267.26534832    555.755517    0.37972   -0.09283   -0.63815    9
   18      0.222D-07      0.342D-08      -267.26534832    555.755517    0.37972   -0.09283   -0.63815    9
   19      0.114D-07      0.133D-08      -267.26534832    555.755517    0.37972   -0.09283   -0.63815    9
   20      0.444D-08      0.566D-09      -267.26534832    555.755517    0.37972   -0.09283   -0.63815    9
   21      0.165D-08      0.286D-09      -267.26534832    555.755517    0.37972   -0.09283   -0.63815    9
   22      0.753D-09      0.162D-09      -267.26534832    555.755517    0.37972   -0.09283   -0.63815    9
   23      0.446D-09      0.796D-10      -267.26534832    555.755517    0.37972   -0.09283   -0.63815    9
   24      0.263D-09      0.316D-10      -267.26534832    555.755517    0.37972   -0.09283   -0.63815    9
   25      0.932D-10      0.129D-10      -267.26534832    555.755517    0.37972   -0.09283   -0.63815    0

 Final alpha occupancy:  21
 Final beta  occupancy:  20

 !RHF STATE 1.1 Energy               -267.265348317944
 Nuclear energy                       183.21776106
 One-electron energy                 -728.36086801
 Two-electron energy                  277.87775863
 Virial quotient                       -1.00156279
 !RHF STATE 1.1 Dipole moment           0.37972189    -0.09283435    -0.63815328
 Dipole moment /Debye                   0.96509356    -0.23594594    -1.62191763

 Orbital energies:

         1.1          2.1          3.1          4.1          5.1          6.1          7.1          8.1          9.1         10.1
    -20.630480   -20.628838   -11.279256   -11.238002   -11.232184    -1.470123    -1.240671    -1.023189    -0.945291    -0.768420

        11.1         12.1         13.1         14.1         15.1         16.1         17.1         18.1         19.1         20.1
     -0.704520    -0.642980    -0.626754    -0.588709    -0.545200    -0.543322    -0.538947    -0.516874    -0.492994    -0.469791

        21.1         22.1         23.1
     -0.352257     0.181244     0.183504


 **********************************************************************************************************************************
 DATASETS  * FILE   NREC   LENGTH (MB)   RECORD NAMES
              1      18        3.17       500      610      700      900      950      970     1000      129      960     1100   
                                          VAR    BASINP    GEOM    SYMINP    ZMAT    AOBASIS   BASIS     P2S    ABASIS      S 
                                         1400     1410     1200     1210     1080     1600     1650     1700   
                                           T        V       H0       H01     AOSYM     SMH    MOLCAS    OPER   

              2       3        0.77       700     1000     2100   
                                         GEOM     BASIS     RHF  

 PROGRAMS   *        TOTAL       RHF       INT
 CPU TIMES  *         2.48      1.37      1.04
 REAL TIME  *         3.03 SEC
 DISK USED  *       334.37 MB      
 SF USED    *         0.04 MB      
 GA USED    *         0.00 MB       (max)       0.00 MB       (current)
 **********************************************************************************************************************************


1PROGRAM * CCSD (Unrestricted open-shell coupled cluster)     Authors: C. Hampel, H.-J. Werner, 1991, M. Deegan, P.J. Knowles, 1992


 Convergence thresholds:  THRVAR = 1.00D-08  THRDEN = 1.00D-10

 CCSD(T)     terms to be evaluated (factor= 1.000)


 Number of core orbitals:           5 (   5 )
 Number of closed-shell orbitals:  15 (  15 )
 Number of active  orbitals:        1 (   1 )
 Number of external orbitals:      84 (  84 )

 Memory could be reduced to 24.91 Mwords without degradation in triples

 Number of N-1 electron functions:              31
 Number of N-2 electron functions:             465
 Number of singly external CSFs:              2635
 Number of doubly external CSFs:           2537250
 Total number of CSFs:                     2539885

 Molecular orbitals read from record     2100.2  Type=RHF/CANONICAL (state 1.1)

 Integral transformation finished. Total CPU:   0.93 sec, npass=  1  Memory used:  12.63 MW

 Starting RMP2 calculation

 ITER.      SQ.NORM     CORR.ENERGY   TOTAL ENERGY   ENERGY CHANGE        DEN1      VAR(S)    VAR(P)  DIIS     TIME
   1      1.24306287    -0.78641155  -268.05175987    -0.78641155    -0.00305042  0.20D-04  0.11D-02  1  1     1.27
   2      1.24570510    -0.78970123  -268.05504955    -0.00328969    -0.00000475  0.54D-06  0.19D-05  2  2     1.54
   3      1.24577068    -0.78974331  -268.05509163    -0.00004208    -0.00000003  0.16D-07  0.68D-08  3  3     1.84
   4      1.24577163    -0.78974331  -268.05509163    -0.00000000    -0.00000000  0.27D-09  0.38D-10  4  4     2.16
   5      1.24577172    -0.78974335  -268.05509167    -0.00000003    -0.00000000  0.25D-11  0.65D-12  5  5     2.49
   6      1.24577173    -0.78974335  -268.05509167    -0.00000001    -0.00000000  0.28D-13  0.87D-14  6  6     2.85
   7      1.24577173    -0.78974335  -268.05509167     0.00000000    -0.00000000  0.47D-15  0.12D-15  6  1     3.21
   8      1.24577173    -0.78974335  -268.05509167     0.00000000    -0.00000000  0.60D-17  0.13D-17  6  2     3.58

 Norm of t1 vector:      0.03893461      S-energy:    -0.00227176      T1 diagnostic:  0.00055032
 Norm of t2 vector:      0.49422244      P-energy:    -0.78747159
                                         Alpha-Beta:  -0.59344606
                                         Alpha-Alpha: -0.10094396
                                         Beta-Beta:   -0.09308157

 Spin contamination <S**2-Sz**2-Sz>     0.00104037
  Reference energy                   -267.265348317944
  RHF-RMP2 correlation energy          -0.789743353588
 !RHF-RMP2 energy                    -268.055091671532

 Starting UCCSD calculation

 ITER.      SQ.NORM     CORR.ENERGY   TOTAL ENERGY   ENERGY CHANGE        DEN1      VAR(S)    VAR(P)  DIIS     TIME
   1      1.26283901    -0.80907896  -268.07442727    -0.80907896    -0.02516087  0.38D-02  0.59D-02  1  1     9.87
   2      1.29162298    -0.83649356  -268.10184188    -0.02741461    -0.00201189  0.22D-03  0.66D-03  2  2    16.10
   3      1.30156893    -0.84099366  -268.10634198    -0.00450009    -0.00032473  0.19D-03  0.56D-04  3  3    22.36
   4      1.30648395    -0.84247138  -268.10781970    -0.00147772    -0.00007209  0.43D-04  0.14D-04  4  4    28.65
   5      1.30921398    -0.84285955  -268.10820787    -0.00038817    -0.00002367  0.19D-04  0.32D-05  5  5    34.95
   6      1.31115314    -0.84306403  -268.10841234    -0.00020448    -0.00000646  0.42D-05  0.12D-05  6  6    41.29
   7      1.31210248    -0.84312280  -268.10847112    -0.00005878    -0.00000208  0.14D-05  0.37D-06  6  2    47.64
   8      1.31254415    -0.84316549  -268.10851381    -0.00004269    -0.00000065  0.45D-06  0.11D-06  6  1    53.99
   9      1.31272944    -0.84317008  -268.10851840    -0.00000459    -0.00000022  0.15D-06  0.35D-07  6  4    60.32
  10      1.31279268    -0.84317301  -268.10852133    -0.00000293    -0.00000005  0.35D-07  0.95D-08  6  3    66.67
  11      1.31282220    -0.84317175  -268.10852007     0.00000126    -0.00000002  0.13D-07  0.28D-08  6  5    73.00
  12      1.31283258    -0.84317149  -268.10851981     0.00000026    -0.00000000  0.26D-08  0.95D-09  6  6    79.36
  13      1.31283143    -0.84317058  -268.10851889     0.00000092    -0.00000000  0.96D-09  0.28D-09  6  2    85.71
  14      1.31282622    -0.84316973  -268.10851805     0.00000084    -0.00000000  0.21D-09  0.68D-10  6  1    92.04
  15      1.31282215    -0.84316914  -268.10851746     0.00000059    -0.00000000  0.78D-10  0.19D-10  6  4    98.38
  16      1.31281897    -0.84316876  -268.10851708     0.00000038    -0.00000000  0.28D-10  0.63D-11  6  3   104.71
  17      1.31281676    -0.84316852  -268.10851684     0.00000024    -0.00000000  0.10D-10  0.24D-11  6  5   111.05
  18      1.31281586    -0.84316846  -268.10851678     0.00000006    -0.00000000  0.41D-11  0.87D-12  6  6   117.40
  19      1.31281525    -0.84316843  -268.10851675     0.00000003    -0.00000000  0.16D-11  0.37D-12  6  2   123.75
  20      1.31281493    -0.84316842  -268.10851673     0.00000001    -0.00000000  0.60D-12  0.13D-12  6  1   128.75
  21      1.31281477    -0.84316841  -268.10851672     0.00000001    -0.00000000  0.28D-12  0.58D-13  6  4   133.44
  22      1.31281465    -0.84316840  -268.10851672     0.00000001    -0.00000000  0.74D-13  0.21D-13  6  3   138.13
  23      1.31281459    -0.84316839  -268.10851671     0.00000000    -0.00000000  0.21D-13  0.63D-14  6  5   142.82
  24      1.31281458    -0.84316840  -268.10851671    -0.00000000    -0.00000000  0.67D-14  0.23D-14  6  6   147.50
  25      1.31281459    -0.84316840  -268.10851671    -0.00000000    -0.00000000  0.21D-14  0.52D-15  6  2   152.23
  26      1.31281459    -0.84316840  -268.10851672    -0.00000000    -0.00000000  0.77D-15  0.15D-15  6  1   156.93
  27      1.31281460    -0.84316840  -268.10851672    -0.00000000    -0.00000000  0.20D-15  0.63D-16  6  3   161.63
  28      1.31281461    -0.84316840  -268.10851672    -0.00000000    -0.00000000  0.30D-16  0.11D-16  6  4   166.31
  29      1.31281461    -0.84316840  -268.10851672    -0.00000000    -0.00000000  0.71D-17  0.29D-17  6  5   170.98
  30      1.31281461    -0.84316840  -268.10851672    -0.00000000    -0.00000000  0.15D-17  0.54D-18  6  6   175.66
  31      1.31281461    -0.84316840  -268.10851672    -0.00000000    -0.00000000  0.35D-18  0.10D-18  6  2   180.35

 Norm of t1 vector:      0.13872462      S-energy:    -0.00282140      T1 diagnostic:  0.01617008
                                                                       D1 diagnostic:  0.06281264
 Norm of t2 vector:      0.54182109      P-energy:    -0.84034700
                                         Alpha-Beta:  -0.66490299
                                         Alpha-Alpha: -0.09147407
                                         Beta-Beta:   -0.08396994

 Spin contamination <S**2-Sz**2-Sz>     0.00217142

 Memory could be reduced to 28.85 Mwords without degradation in triples
 

 RESULTS
 =======

  Reference energy                   -267.265348317944
  UCCSD singles energy                 -0.002821395950
  UCCSD pair energy                    -0.840347002668
  UCCSD correlation energy             -0.843168398619
  Triples (T) contribution             -0.024979877884
  Total correlation energy             -0.868148276503
 
  RHF-UCCSD energy                   -268.108516716563
  RHF-UCCSD[T] energy                -268.134832748601
  RHF-UCCSD-T energy                 -268.133074952541
 !RHF-UCCSD(T) energy                -268.133496594446

 Program statistics:

 Available memory in ccsd:               999997692
 Min. memory needed in ccsd:               7337057
 Max. memory used in ccsd:                10523002
 Max. memory used in cckext:              10867977 (31 integral passes)
 Max. memory used in cckint:              12633073 ( 1 integral passes)



 **********************************************************************************************************************************
 DATASETS  * FILE   NREC   LENGTH (MB)   RECORD NAMES
              1      18        3.17       500      610      700      900      950      970     1000      129      960     1100   
                                          VAR    BASINP    GEOM    SYMINP    ZMAT    AOBASIS   BASIS     P2S    ABASIS      S 
                                         1400     1410     1200     1210     1080     1600     1650     1700   
                                           T        V       H0       H01     AOSYM     SMH    MOLCAS    OPER   

              2       3        0.77       700     1000     2100   
                                         GEOM     BASIS     RHF  

 PROGRAMS   *        TOTAL  UCCSD(T)       RHF       INT
 CPU TIMES  *       218.71    216.23      1.37      1.04
 REAL TIME  *       228.06 SEC
 DISK USED  *         1.30 GB      
 SF USED    *       553.73 MB      
 GA USED    *         0.00 MB       (max)       0.00 MB       (current)
 **********************************************************************************************************************************

        UCCSD(T)        RHF-SCF 
   -268.13349659   -267.26534832
 **********************************************************************************************************************************
 Variable memory released
