
 Primary working directories    : /tmp/320938.640.gen6.q
 Secondary working directories  : /tmp/320938.640.gen6.q
 Wavefunction directory         : /home/vulcan/mel64643/wfu/
 Main file repository           : /tmp/320938.640.gen6.q/

 ARCHNAME  : Linux/x86_64
 FC        : /opt/intel/compilers_and_libraries_2016.1.150/linux/bin/intel64/ifort
 FCVERSION : 16.0.1
 BLASLIB   : -mkl
 id        : ccgc

 Nodes     nprocs
 n078         3
 Number of processes for MPI-2 version of Molpro:   nprocs(total)=    4   nprocs(compute)=    3   nprocs(helper)=    1
 ga_uses_ma=false, calling ma_init with nominal heap.
 GA-space will be limited to   8.0 MW (determined by -G option)

 Using customized tuning parameters: mindgm=10; mindgv=16; mindgc=4; mindgr=1; noblas=0; mincuda=1000; minvec=7
 default implementation of scratch files=sf  

 ***,Frequencies for min3
 memory,1000,m
 gthresh,energy=1.0d-10,orbital=1.0d-10,oneint=1.0d-16,twoint=1.0d-16,optgrad=1.0d-6,compress=1.0d-13
 geomtyp=xyz
 
  geometry = {
  12
  arbitrary comment
     C    1.776964391707    0.711398808326   -0.047331391796
     C    0.491811976407   -0.059992870174   -0.196493901896
     C    0.450332819107   -1.536294019674    0.101417522804
     O   -0.560767745493    0.727234937526    0.254453964104
     O   -1.837840335593    0.092269037726   -0.120531795196
     H    2.585373063107    0.213706752431   -0.611492437628
     H    1.660863214809    1.742233884566   -0.426776314142
     H    2.095355673079    0.773481558863    1.017526796986
     H   -0.505172539027   -1.982977693760   -0.219900276006
     H    1.281581756625   -2.047782927458   -0.416950395232
     H    0.562698358217   -1.720458377903    1.195902874635
     H   -1.989015918361    0.551884807943   -0.968127322881
  }
 
 basis=cc-pvdz
 {rhf;maxit,200}
 {uccsd(t);maxit,200}

 Variables initialized (661), CPU time= 0.00 sec
 Commands  initialized (458), CPU time= 0.01 sec, 486 directives.
 Default parameters read. Elapsed time= 0.06 sec

 Checking input...
 Passed
1


                                         ***  PROGRAM SYSTEM MOLPRO  ***
                         Copyright, University College Cardiff Consultants Limited, 2008

                                    Version 2010.1 linked May 16 2016 07:17:05


 **********************************************************************************************************************************
 LABEL *   Frequencies for min3                                                          
 Linux-4.4.3/n078(x86_64) 64 bit mpp version                                             DATE: 07-Mar-20          TIME: 04:44:05  
 **********************************************************************************************************************************

 SHA1:             9e8077add272b0f3cad6f7df79ec5211205f459d
 **********************************************************************************************************************************

 THRESHOLDS:

 ZERO    =  1.00D-12  ONEINT  =  1.00D-16  TWOINT  =  1.00D-16  PREFAC  =  1.00D-14  LOCALI  =  1.00D-09  EORDER  =  1.00D-04
 ENERGY  =  1.00D-10  ETEST   =  0.00D+00  EDENS   =  0.00D+00  THRDEDEF=  1.00D-06  GRADIENT=  1.00D-02  STEP    =  1.00D-03
 ORBITAL =  1.00D-10  CIVEC   =  1.00D-05  COEFF   =  1.00D-04  PRINTCI =  5.00D-02  PUNCHCI =  9.90D+01  OPTGRAD =  1.00D-06
 OPTENERG=  1.00D-06  OPTSTEP =  3.00D-04  THRGRAD =  1.00D-10  COMPRESS=  1.00D-13  VARMIN  =  1.00D-07  VARMAX  =  1.00D-03
 THRDOUB =  0.00D+00  THRDIV  =  1.00D-05  THRRED  =  1.00D-07  THRPSP  =  1.00D+00  THRDC   =  1.00D-10  THRCS   =  1.00D-10
 THRNRM  =  1.00D-08  THREQ   =  0.00D+00  THRDE   =  1.00D+00  THRREF  =  1.00D-05  SPARFAC =  1.00D+00  THRDLP  =  1.00D-07
 THRDIA  =  1.00D-10  THRDLS  =  1.00D-07  THRGPS  =  0.00D+00  THRKEX  =  0.00D+00  THRDIS  =  2.00D-01  THRVAR  =  1.00D-10
 THRLOC  =  1.00D-06  THRGAP  =  1.00D-06  THRLOCT = -1.00D+00  THRGAPT = -1.00D+00  THRORB  =  1.00D-06  THRMLTP =  0.00D+00
 THRCPQCI=  1.00D-10  KEXTA   =  0.00D+00  THRCOARS=  0.00D+00  SYMTOL  =  1.00D-06  GRADTOL =  1.00D-06  THROVL  =  1.00D-08
 THRORTH =  1.00D-08  GRID    =  1.00D-06  GRIDMAX =  1.00D-03  DTMAX   =  0.00D+00

 SETTING GEOMTYP        =    XYZ

 Variable memory set to 1000000000 words,  buffer space   230000 words

 SETTING BASIS          =    CC-PVDZ


 Recomputing integrals since basis changed


 Using spherical harmonics

 Library entry C      S cc-pVDZ              selected for orbital group  1
 Library entry C      P cc-pVDZ              selected for orbital group  1
 Library entry C      D cc-pVDZ              selected for orbital group  1
 Library entry O      S cc-pVDZ              selected for orbital group  2
 Library entry O      P cc-pVDZ              selected for orbital group  2
 Library entry O      D cc-pVDZ              selected for orbital group  2
 Library entry H      S cc-pVDZ              selected for orbital group  3
 Library entry H      P cc-pVDZ              selected for orbital group  3

1PROGRAM * SEWARD (Integral evaluation for generally contracted gaussian basis sets)     Author: Roland Lindh, 1990

 Geometry written to block  1 of record 700


 Point group  C1  



 ATOMIC COORDINATES

 NR  ATOM    CHARGE       X              Y              Z

   1  C       6.00    3.357976046    1.344348918   -0.089443368
   2  C       6.00    0.929389944   -0.113370094   -0.371319661
   3  C       6.00    0.851005696   -2.903174955    0.191651343
   4  O       8.00   -1.059697462    1.374274865    0.480848305
   5  O       8.00   -3.473014908    0.174363212   -0.227772083
   6  H       1.00    4.885647037    0.403847235   -1.155553239
   7  H       1.00    3.138576618    3.292344899   -0.806490353
   8  H       1.00    3.959648370    1.461668314    1.922846978
   9  H       1.00   -0.954637748   -3.747284766   -0.415551298
  10  H       1.00    2.421838535   -3.869748909   -0.787922057
  11  H       1.00    1.063345792   -3.251195155    2.259928913
  12  H       1.00   -3.758695357    1.042911143   -1.829495501

 Bond lengths in Bohr (Angstrom)

 1-2  2.846476668  1-6  2.086842670  1-7  2.087338216  1-8  2.103588805  2-3  2.847119878
     ( 1.506290578)     ( 1.104309580)     ( 1.104571812)     ( 1.113171253)     ( 1.506630951)

  2- 4  2.625975338   3- 9  2.083642164   3-10  2.088383362   3-11  2.108074591   4- 5  2.786760112
       ( 1.389606300)       ( 1.102615945)       ( 1.105124879)       ( 1.115545028)       ( 1.474689938)

  5-12  1.844317417
       ( 0.975970743)

 Bond angles

  1-2-3  120.37866573   1-2-4  108.90555081   2-1-6  110.07116632   2-1-7  110.74629322

  2- 1- 8  111.55047017   2- 3- 9  111.29641536   2- 3-10  109.88050451   2- 3-11  110.67050474

  2- 4- 5  109.23946113   3- 2- 4  118.03986083   4- 5-12   98.75458677   6- 1- 7  108.78667071

  6- 1- 8  107.72523931   7- 1- 8  107.85616655   9- 3-10  109.12507868   9- 3-11  107.83765725

 10- 3-11  107.94054163

 NUCLEAR CHARGE:                   41
 NUMBER OF PRIMITIVE AOS:         184
 NUMBER OF SYMMETRY AOS:          179
 NUMBER OF CONTRACTIONS:          105   ( 105A   )
 NUMBER OF CORE ORBITALS:           5   (   5A   )
 NUMBER OF VALENCE ORBITALS:       27   (  27A   )


 NUCLEAR REPULSION ENERGY  183.20789757


 Eigenvalues of metric

         1 0.345E-02 0.435E-02 0.105E-01 0.141E-01 0.182E-01 0.214E-01 0.331E-01 0.345E-01


 Contracted 2-electron integrals neglected if value below      1.0D-16
 AO integral compression algorithm  1   Integral accuracy      1.0D-16

     127.402 MB (compressed) written to integral file ( 93.4%)

     Node minimum: 34.341 MB, node maximum: 56.623 MB


 NUMBER OF SORTED TWO-ELECTRON INTEGRALS:    5164320.     BUFFER LENGTH:  32768
 NUMBER OF SEGMENTS:   1  SEGMENT LENGTH:    5164320      RECORD LENGTH: 524288

 Memory used in sort:       5.72 MW

 SORT1 READ    17075251. AND WROTE     5135891. INTEGRALS IN     15 RECORDS. CPU TIME:     0.30 SEC, REAL TIME:     0.34 SEC
 SORT2 READ    15396606. AND WROTE    15487395. INTEGRALS IN    648 RECORDS. CPU TIME:     0.09 SEC, REAL TIME:     0.13 SEC

 Node minimum:     5160610.  Node maximum:     5164320. integrals

 OPERATOR DM      FOR CENTER  0  COORDINATES:    0.000000    0.000000    0.000000


 **********************************************************************************************************************************
 DATASETS  * FILE   NREC   LENGTH (MB)   RECORD NAMES
              1      18        3.17       500      610      700      900      950      970     1000      129      960     1100   
                                          VAR    BASINP    GEOM    SYMINP    ZMAT    AOBASIS   BASIS     P2S    ABASIS      S 
                                         1400     1410     1200     1210     1080     1600     1650     1700   
                                           T        V       H0       H01     AOSYM     SMH    MOLCAS    OPER   

 PROGRAMS   *        TOTAL       INT
 CPU TIMES  *         1.14      1.06
 REAL TIME  *         1.55 SEC
 DISK USED  *       318.24 MB      
 GA USED    *         0.00 MB       (max)       0.00 MB       (current)
 **********************************************************************************************************************************

1PROGRAM * RHF-SCF (OPEN SHELL)       Authors: W. Meyer, H.-J. Werner


 NUMBER OF ELECTRONS:      21+   20-    SPACE SYMMETRY=1    SPIN SYMMETRY: Doublet 
 CONVERGENCE THRESHOLDS:    1.00E-10 (Density)    1.00E-11 (Energy)
 MAX. NUMBER OF ITERATIONS:      200
 INTERPOLATION TYPE:            DIIS
 INTERPOLATION STEPS:              2 (START)      1 (STEP)
 LEVEL SHIFTS:                 -0.30 (CLOSED)  0.00 (OPEN) 



 Orbital guess generated from atomic densities. Full valence occupancy:   32

 Molecular orbital dump at record        2100.2

 ITERATION    DDIFF          GRAD             ENERGY        2-EL.EN.            DIPOLE MOMENTS         DIIS
    1      0.000D+00      0.000D+00      -267.17818690    555.796334    0.56812    0.05048   -0.75038    0
    2      0.000D+00      0.617D-02      -267.24885673    555.715352    0.41321   -0.13001   -0.60002    1
    3      0.927D-02      0.214D-02      -267.26102826    555.633654    0.39312   -0.05819   -0.62744    2
    4      0.336D-02      0.912D-03      -267.26463259    555.785551    0.37874   -0.09839   -0.64380    3
    5      0.186D-02      0.363D-03      -267.26520103    555.756867    0.38139   -0.09191   -0.63679    4
    6      0.792D-03      0.110D-03      -267.26527732    555.743076    0.37970   -0.09171   -0.63952    5
    7      0.277D-03      0.510D-04      -267.26529739    555.740074    0.37902   -0.09145   -0.63901    6
    8      0.143D-03      0.272D-04      -267.26530343    555.738117    0.37931   -0.09156   -0.63921    7
    9      0.922D-04      0.115D-04      -267.26530434    555.738437    0.37950   -0.09152   -0.63897    8
   10      0.365D-04      0.500D-05      -267.26530450    555.739048    0.37976   -0.09154   -0.63903    9
   11      0.146D-04      0.196D-05      -267.26530453    555.738890    0.37981   -0.09153   -0.63904    9
   12      0.650D-05      0.670D-06      -267.26530453    555.739025    0.37983   -0.09153   -0.63904    9
   13      0.227D-05      0.226D-06      -267.26530453    555.738940    0.37983   -0.09153   -0.63903    9
   14      0.632D-06      0.758D-07      -267.26530453    555.738949    0.37983   -0.09153   -0.63903    9
   15      0.193D-06      0.301D-07      -267.26530453    555.738945    0.37983   -0.09153   -0.63903    9
   16      0.827D-07      0.146D-07      -267.26530453    555.738946    0.37983   -0.09153   -0.63903    9
   17      0.376D-07      0.754D-08      -267.26530453    555.738946    0.37983   -0.09153   -0.63903    9
   18      0.224D-07      0.343D-08      -267.26530453    555.738946    0.37983   -0.09153   -0.63903    9
   19      0.115D-07      0.133D-08      -267.26530453    555.738946    0.37983   -0.09153   -0.63903    9
   20      0.444D-08      0.567D-09      -267.26530453    555.738946    0.37983   -0.09153   -0.63903    9
   21      0.166D-08      0.287D-09      -267.26530453    555.738946    0.37983   -0.09153   -0.63903    9
   22      0.754D-09      0.162D-09      -267.26530453    555.738946    0.37983   -0.09153   -0.63903    9
   23      0.447D-09      0.797D-10      -267.26530453    555.738946    0.37983   -0.09153   -0.63903    9
   24      0.264D-09      0.317D-10      -267.26530453    555.738946    0.37983   -0.09153   -0.63903    9
   25      0.933D-10      0.129D-10      -267.26530453    555.738946    0.37983   -0.09153   -0.63903    0

 Final alpha occupancy:  21
 Final beta  occupancy:  20

 !RHF STATE 1.1 Energy               -267.265304528381
 Nuclear energy                       183.20789757
 One-electron energy                 -728.34267534
 Two-electron energy                  277.86947324
 Virial quotient                       -1.00156705
 !RHF STATE 1.1 Dipole moment           0.37983066    -0.09153377    -0.63903433
 Dipole moment /Debye                   0.96537002    -0.23264040    -1.62415687

 Orbital energies:

         1.1          2.1          3.1          4.1          5.1          6.1          7.1          8.1          9.1         10.1
    -20.630456   -20.628941   -11.279298   -11.237693   -11.232336    -1.469978    -1.240438    -1.023158    -0.945333    -0.768437

        11.1         12.1         13.1         14.1         15.1         16.1         17.1         18.1         19.1         20.1
     -0.704322    -0.643005    -0.626685    -0.588704    -0.544948    -0.543381    -0.538984    -0.516904    -0.492958    -0.469751

        21.1         22.1         23.1
     -0.352308     0.181166     0.183495


 **********************************************************************************************************************************
 DATASETS  * FILE   NREC   LENGTH (MB)   RECORD NAMES
              1      18        3.17       500      610      700      900      950      970     1000      129      960     1100   
                                          VAR    BASINP    GEOM    SYMINP    ZMAT    AOBASIS   BASIS     P2S    ABASIS      S 
                                         1400     1410     1200     1210     1080     1600     1650     1700   
                                           T        V       H0       H01     AOSYM     SMH    MOLCAS    OPER   

              2       3        0.77       700     1000     2100   
                                         GEOM     BASIS     RHF  

 PROGRAMS   *        TOTAL       RHF       INT
 CPU TIMES  *         2.56      1.43      1.06
 REAL TIME  *         3.24 SEC
 DISK USED  *       334.81 MB      
 SF USED    *         0.04 MB      
 GA USED    *         0.00 MB       (max)       0.00 MB       (current)
 **********************************************************************************************************************************


1PROGRAM * CCSD (Unrestricted open-shell coupled cluster)     Authors: C. Hampel, H.-J. Werner, 1991, M. Deegan, P.J. Knowles, 1992


 Convergence thresholds:  THRVAR = 1.00D-08  THRDEN = 1.00D-10

 CCSD(T)     terms to be evaluated (factor= 1.000)


 Number of core orbitals:           5 (   5 )
 Number of closed-shell orbitals:  15 (  15 )
 Number of active  orbitals:        1 (   1 )
 Number of external orbitals:      84 (  84 )

 Memory could be reduced to 24.91 Mwords without degradation in triples

 Number of N-1 electron functions:              31
 Number of N-2 electron functions:             465
 Number of singly external CSFs:              2635
 Number of doubly external CSFs:           2537250
 Total number of CSFs:                     2539885

 Molecular orbitals read from record     2100.2  Type=RHF/CANONICAL (state 1.1)

 Integral transformation finished. Total CPU:   0.70 sec, npass=  1  Memory used:  12.63 MW

 Starting RMP2 calculation

 ITER.      SQ.NORM     CORR.ENERGY   TOTAL ENERGY   ENERGY CHANGE        DEN1      VAR(S)    VAR(P)  DIIS     TIME
   1      1.24308906    -0.78645198  -268.05175651    -0.78645198    -0.00305090  0.20D-04  0.11D-02  1  1     0.95
   2      1.24573184    -0.78974220  -268.05504672    -0.00329022    -0.00000475  0.54D-06  0.19D-05  2  2     1.18
   3      1.24579745    -0.78978429  -268.05508882    -0.00004209    -0.00000003  0.16D-07  0.68D-08  3  3     1.44
   4      1.24579841    -0.78978429  -268.05508882    -0.00000000    -0.00000000  0.27D-09  0.38D-10  4  4     1.72
   5      1.24579849    -0.78978433  -268.05508885    -0.00000003    -0.00000000  0.25D-11  0.66D-12  5  5     2.02
   6      1.24579850    -0.78978433  -268.05508886    -0.00000001    -0.00000000  0.28D-13  0.87D-14  6  6     2.35
   7      1.24579850    -0.78978433  -268.05508886     0.00000000    -0.00000000  0.47D-15  0.12D-15  6  1     2.67
   8      1.24579850    -0.78978433  -268.05508886     0.00000000    -0.00000000  0.60D-17  0.13D-17  6  2     2.99

 Norm of t1 vector:      0.03893973      S-energy:    -0.00227200      T1 diagnostic:  0.00055062
 Norm of t2 vector:      0.49424913      P-energy:    -0.78751234
                                         Alpha-Beta:  -0.59347737
                                         Alpha-Alpha: -0.10094870
                                         Beta-Beta:   -0.09308627

 Spin contamination <S**2-Sz**2-Sz>     0.00104060
  Reference energy                   -267.265304528380
  RHF-RMP2 correlation energy          -0.789784330915
 !RHF-RMP2 energy                    -268.055088859295

 Starting UCCSD calculation

 ITER.      SQ.NORM     CORR.ENERGY   TOTAL ENERGY   ENERGY CHANGE        DEN1      VAR(S)    VAR(P)  DIIS     TIME
   1      1.26285934    -0.80910885  -268.07441338    -0.80910885    -0.02516502  0.38D-02  0.59D-02  1  1     7.59
   2      1.29164948    -0.83652717  -268.10183170    -0.02741832    -0.00201295  0.22D-03  0.66D-03  2  2    12.20
   3      1.30160113    -0.84102906  -268.10633359    -0.00450189    -0.00032498  0.19D-03  0.56D-04  3  3    16.84
   4      1.30652064    -0.84250775  -268.10781228    -0.00147869    -0.00007217  0.43D-04  0.14D-04  4  4    21.52
   5      1.30925375    -0.84289627  -268.10820080    -0.00038852    -0.00002370  0.19D-04  0.32D-05  5  5    26.24
   6      1.31119532    -0.84310097  -268.10840550    -0.00020470    -0.00000646  0.42D-05  0.12D-05  6  6    30.99
   7      1.31214586    -0.84315983  -268.10846435    -0.00005886    -0.00000208  0.14D-05  0.37D-06  6  2    35.71
   8      1.31258795    -0.84320254  -268.10850707    -0.00004272    -0.00000065  0.45D-06  0.11D-06  6  1    40.46
   9      1.31277339    -0.84320714  -268.10851167    -0.00000460    -0.00000022  0.15D-06  0.35D-07  6  4    45.24
  10      1.31283665    -0.84321008  -268.10851461    -0.00000294    -0.00000005  0.35D-07  0.95D-08  6  3    50.02
  11      1.31286613    -0.84320881  -268.10851334     0.00000127    -0.00000002  0.13D-07  0.28D-08  6  5    54.80
  12      1.31287651    -0.84320855  -268.10851307     0.00000027    -0.00000000  0.26D-08  0.95D-09  6  6    59.58
  13      1.31287535    -0.84320763  -268.10851216     0.00000092    -0.00000000  0.96D-09  0.29D-09  6  2    64.35
  14      1.31287014    -0.84320678  -268.10851131     0.00000085    -0.00000000  0.21D-09  0.68D-10  6  1    69.15
  15      1.31286606    -0.84320620  -268.10851072     0.00000059    -0.00000000  0.78D-10  0.19D-10  6  4    73.93
  16      1.31286288    -0.84320581  -268.10851034     0.00000038    -0.00000000  0.28D-10  0.63D-11  6  3    78.73
  17      1.31286067    -0.84320557  -268.10851010     0.00000024    -0.00000000  0.10D-10  0.24D-11  6  5    83.51
  18      1.31285976    -0.84320551  -268.10851004     0.00000006    -0.00000000  0.41D-11  0.87D-12  6  6    88.29
  19      1.31285915    -0.84320548  -268.10851001     0.00000003    -0.00000000  0.16D-11  0.37D-12  6  2    93.07
  20      1.31285883    -0.84320547  -268.10851000     0.00000001    -0.00000000  0.60D-12  0.13D-12  6  1    97.87
  21      1.31285867    -0.84320546  -268.10850999     0.00000001    -0.00000000  0.28D-12  0.58D-13  6  4   102.66
  22      1.31285855    -0.84320545  -268.10850998     0.00000001    -0.00000000  0.74D-13  0.21D-13  6  3   107.46
  23      1.31285849    -0.84320545  -268.10850997     0.00000000    -0.00000000  0.22D-13  0.63D-14  6  5   113.42
  24      1.31285848    -0.84320545  -268.10850997    -0.00000000    -0.00000000  0.68D-14  0.23D-14  6  6   118.21
  25      1.31285849    -0.84320545  -268.10850998    -0.00000000    -0.00000000  0.21D-14  0.53D-15  6  2   123.00
  26      1.31285849    -0.84320545  -268.10850998    -0.00000000    -0.00000000  0.77D-15  0.15D-15  6  1   127.78
  27      1.31285850    -0.84320545  -268.10850998    -0.00000000    -0.00000000  0.20D-15  0.63D-16  6  3   132.57
  28      1.31285851    -0.84320545  -268.10850998    -0.00000000    -0.00000000  0.30D-16  0.11D-16  6  4   137.34
  29      1.31285851    -0.84320545  -268.10850998    -0.00000000    -0.00000000  0.71D-17  0.29D-17  6  5   142.13
  30      1.31285851    -0.84320545  -268.10850998    -0.00000000    -0.00000000  0.15D-17  0.54D-18  6  6   146.90
  31      1.31285851    -0.84320545  -268.10850998    -0.00000000    -0.00000000  0.35D-18  0.10D-18  6  2   152.93

 Norm of t1 vector:      0.13877797      S-energy:    -0.00282198      T1 diagnostic:  0.01617658
                                                                       D1 diagnostic:  0.06284017
 Norm of t2 vector:      0.54184794      P-energy:    -0.84038347
                                         Alpha-Beta:  -0.66493715
                                         Alpha-Alpha: -0.09147507
                                         Beta-Beta:   -0.08397125

 Spin contamination <S**2-Sz**2-Sz>     0.00217336

 Memory could be reduced to 28.85 Mwords without degradation in triples
 

 RESULTS
 =======

  Reference energy                   -267.265304528380
  UCCSD singles energy                 -0.002821976465
  UCCSD pair energy                    -0.840383473251
  UCCSD correlation energy             -0.843205449715
  Triples (T) contribution             -0.024982773208
  Total correlation energy             -0.868188222924
 
  RHF-UCCSD energy                   -268.108509978095
  RHF-UCCSD[T] energy                -268.134829677037
  RHF-UCCSD-T energy                 -268.133070873330
 !RHF-UCCSD(T) energy                -268.133492751303

 Program statistics:

 Available memory in ccsd:               999997692
 Min. memory needed in ccsd:               7337057
 Max. memory used in ccsd:                10523002
 Max. memory used in cckext:              10867977 (31 integral passes)
 Max. memory used in cckint:              12633073 ( 1 integral passes)



 **********************************************************************************************************************************
 DATASETS  * FILE   NREC   LENGTH (MB)   RECORD NAMES
              1      18        3.17       500      610      700      900      950      970     1000      129      960     1100   
                                          VAR    BASINP    GEOM    SYMINP    ZMAT    AOBASIS   BASIS     P2S    ABASIS      S 
                                         1400     1410     1200     1210     1080     1600     1650     1700   
                                           T        V       H0       H01     AOSYM     SMH    MOLCAS    OPER   

              2       3        0.77       700     1000     2100   
                                         GEOM     BASIS     RHF  

 PROGRAMS   *        TOTAL  UCCSD(T)       RHF       INT
 CPU TIMES  *       200.22    197.66      1.43      1.06
 REAL TIME  *       211.33 SEC
 DISK USED  *         1.30 GB      
 SF USED    *       553.73 MB      
 GA USED    *         0.00 MB       (max)       0.00 MB       (current)
 **********************************************************************************************************************************

        UCCSD(T)        RHF-SCF 
   -268.13349275   -267.26530453
 **********************************************************************************************************************************
 Variable memory released
