
    -----------------------------------------------------------------------
          Psi4: An Open-Source Ab Initio Electronic Structure Package
                               Psi4 1.3.2 release

                         Git: Rev {HEAD} ecbda83 


    R. M. Parrish, L. A. Burns, D. G. A. Smith, A. C. Simmonett,
    A. E. DePrince III, E. G. Hohenstein, U. Bozkaya, A. Yu. Sokolov,
    R. Di Remigio, R. M. Richard, J. F. Gonthier, A. M. James,
    H. R. McAlexander, A. Kumar, M. Saitow, X. Wang, B. P. Pritchard,
    P. Verma, H. F. Schaefer III, K. Patkowski, R. A. King, E. F. Valeev,
    F. A. Evangelista, J. M. Turney, T. D. Crawford, and C. D. Sherrill,
    J. Chem. Theory Comput. 13(7) pp 3185--3197 (2017).
    (doi: 10.1021/acs.jctc.7b00174)


                         Additional Contributions by
    P. Kraus, H. Kruse, M. H. Lechner, M. C. Schieber, R. A. Shaw,
    A. Alenaizan, R. Galvelis, Z. L. Glick, S. Lehtola, and J. P. Misiewicz

    -----------------------------------------------------------------------


    Psi4 started on: Tuesday, 22 September 2020 09:44AM

    Process ID: 42418
    Host:       n216.ecompute
    PSIDATADIR: /usr/local/apps/gb/PSI4/1.3.2/share/psi4
    Memory:     500.0 MiB
    Threads:    4
    
  ==> Input File <==

--------------------------------------------------------------------------
set memory 4GB

molecule {
    0 1
    C    0.000000000000    0.000000000000   -0.694886544200                 
    O    0.000000000000    0.000000000000    0.484995023500

}

set {
    reference rhf
    d_convergence 10
    e_convergence 10
    freeze_core True
}

E = energy('CCSD(T)/cc-pVDZ')
--------------------------------------------------------------------------

*** tstart() called on n216.ecompute
*** at Tue Sep 22 09:44:57 2020

   => Loading Basis Set <=

    Name: CC-PVDZ
    Role: ORBITAL
    Keyword: BASIS
    atoms 1 entry C          line   138 file /usr/local/apps/gb/PSI4/1.3.2/share/psi4/basis/cc-pvdz.gbs 
    atoms 2 entry O          line   198 file /usr/local/apps/gb/PSI4/1.3.2/share/psi4/basis/cc-pvdz.gbs 


         ---------------------------------------------------------
                                   SCF
               by Justin Turney, Rob Parrish, Andy Simmonett
                          and Daniel G. A. Smith
                              RHF Reference
                        4 Threads,    500 MiB Core
         ---------------------------------------------------------

  ==> Geometry <==

    Molecular point group: c2v
    Full point group: C_inf_v

    Geometry (in Angstrom), charge = 0, multiplicity = 1:

       Center              X                  Y                   Z               Mass       
    ------------   -----------------  -----------------  -----------------  -----------------
         C            0.000000000000     0.000000000000    -0.674126183024    12.000000000000
         O            0.000000000000     0.000000000000     0.505755384676    15.994914619570

  Running in c2v symmetry.

  Rotational constants: A = ************  B =      1.76618  C =      1.76618 [cm^-1]
  Rotational constants: A = ************  B =  52948.82674  C =  52948.82674 [MHz]
  Nuclear repulsion =   21.528013325671683

  Charge       = 0
  Multiplicity = 1
  Electrons    = 14
  Nalpha       = 7
  Nbeta        = 7

  ==> Algorithm <==

  SCF Algorithm Type is PK.
  DIIS enabled.
  MOM disabled.
  Fractional occupation disabled.
  Guess Type is SAD.
  Energy threshold   = 1.00e-10
  Density threshold  = 1.00e-10
  Integral threshold = 0.00e+00

  ==> Primary Basis <==

  Basis Set: CC-PVDZ
    Blend: CC-PVDZ
    Number of shells: 12
    Number of basis function: 28
    Number of Cartesian functions: 30
    Spherical Harmonics?: true
    Max angular momentum: 2

  ==> Pre-Iterations <==

   -------------------------------------------------------
    Irrep   Nso     Nmo     Nalpha   Nbeta   Ndocc  Nsocc
   -------------------------------------------------------
     A1        14      14       0       0       0       0
     A2         2       2       0       0       0       0
     B1         6       6       0       0       0       0
     B2         6       6       0       0       0       0
   -------------------------------------------------------
    Total      28      28       7       7       7       0
   -------------------------------------------------------

  ==> Integral Setup <==

  Using in-core PK algorithm.
   Calculation information:
      Number of atoms:                   2
      Number of AO shells:              12
      Number of primitives:             44
      Number of atomic orbitals:        30
      Number of basis functions:        28

      Integral cutoff                 1.00e-12
      Number of threads:                 4

  Performing in-core PK
  Using 165242 doubles for integral storage.
  We computed 5074 shell quartets total.
  Whereas there are 3081 unique shell quartets.
    64.69 percent of shell quartets recomputed by reordering.

  ==> DiskJK: Disk-Based J/K Matrices <==

    J tasked:                  Yes
    K tasked:                  Yes
    wK tasked:                  No
    Memory [MiB]:              375
    Schwarz Cutoff:          1E-12

    OpenMP threads:              4

  Minimum eigenvalue in the overlap matrix is 2.3167964179E-02.
  Using Symmetric Orthogonalization.

  SCF Guess: Superposition of Atomic Densities via on-the-fly atomic UHF.

  ==> Iterations <==

                        Total Energy        Delta E     RMS |[F,P]|

   @RHF iter SAD:  -111.77301898020913   -1.11773e+02   0.00000e+00 
   @RHF iter   1:  -112.70955582528651   -9.36537e-01   1.66103e-02 DIIS
   @RHF iter   2:  -112.71728469831353   -7.72887e-03   1.45779e-02 DIIS
   @RHF iter   3:  -112.73858211375871   -2.12974e-02   9.92569e-04 DIIS
   @RHF iter   4:  -112.73871171459621   -1.29601e-04   1.56208e-04 DIIS
   @RHF iter   5:  -112.73871616461541   -4.45002e-06   2.60141e-05 DIIS
   @RHF iter   6:  -112.73871630656608   -1.41951e-07   3.93832e-06 DIIS
   @RHF iter   7:  -112.73871630923169   -2.66562e-09   7.88844e-07 DIIS
   @RHF iter   8:  -112.73871630932830   -9.66054e-11   2.08052e-07 DIIS
   @RHF iter   9:  -112.73871630933733   -9.03810e-12   1.98811e-08 DIIS
   @RHF iter  10:  -112.73871630933733    0.00000e+00   1.78856e-09 DIIS
   @RHF iter  11:  -112.73871630933729    4.26326e-14   1.68173e-10 DIIS
   @RHF iter  12:  -112.73871630933735   -5.68434e-14   2.10437e-11 DIIS
  Energy and wave function converged.


  ==> Post-Iterations <==

    Orbital Energies [Eh]
    ---------------------

    Doubly Occupied:                                                      

       1A1   -20.670123     2A1   -11.387495     3A1    -1.487642  
       4A1    -0.797473     1B1    -0.612803     1B2    -0.612803  
       5A1    -0.554207  

    Virtual:                                                              

       2B1     0.133785     2B2     0.133785     6A1     0.378365  
       3B2     0.670287     3B1     0.670287     7A1     0.720770  
       8A1     0.939206     9A1     1.066532     4B2     1.232873  
       4B1     1.232873     1A2     1.342684    10A1     1.342684  
       5B2     1.518686     5B1     1.518686    11A1     1.938616  
      12A1     2.243224    13A1     2.931576     2A2     2.931576  
       6B2     3.376480     6B1     3.376480    14A1     3.796627  

    Final Occupation by Irrep:
             A1    A2    B1    B2 
    DOCC [     5,    0,    1,    1 ]

  @RHF Final Energy:  -112.73871630933735

   => Energetics <=

    Nuclear Repulsion Energy =             21.5280133256716830
    One-Electron Energy =                -196.2883682964570369
    Two-Electron Energy =                  62.0216386614480086
    Total Energy =                       -112.7387163093373488

Computation Completed


Properties will be evaluated at   0.000000,   0.000000,   0.000000 [a0]

Properties computed using the SCF density matrix

  Nuclear Dipole Moment: [e a0]
     X:     0.0000      Y:     0.0000      Z:     0.0024

  Electronic Dipole Moment: [e a0]
     X:     0.0000      Y:     0.0000      Z:    -0.1947

  Dipole Moment: [e a0]
     X:     0.0000      Y:     0.0000      Z:    -0.1923     Total:     0.1923

  Dipole Moment: [D]
     X:     0.0000      Y:     0.0000      Z:    -0.4887     Total:     0.4887


*** tstop() called on n216.ecompute at Tue Sep 22 09:44:58 2020
Module time:
	user time   =       1.69 seconds =       0.03 minutes
	system time =       0.15 seconds =       0.00 minutes
	total time  =          1 seconds =       0.02 minutes
Total time:
	user time   =       1.69 seconds =       0.03 minutes
	system time =       0.15 seconds =       0.00 minutes
	total time  =          1 seconds =       0.02 minutes
 MINTS: Wrapper to libmints.
   by Justin Turney

   Calculation information:
      Number of threads:                 4
      Number of atoms:                   2
      Number of AO shells:              12
      Number of SO shells:              12
      Number of primitives:             44
      Number of atomic orbitals:        30
      Number of basis functions:        28

      Number of irreps:                  4
      Integral cutoff                 0.00e+00
      Number of functions per irrep: [  14    2    6    6 ]

 OEINTS: Overlap, kinetic, potential, dipole, and quadrupole integrals
         stored in file 35.

      Computing two-electron integrals...done
      Computed 21245 non-zero two-electron integrals.
        Stored in file 33.


*** tstart() called on n216.ecompute
*** at Tue Sep 22 09:44:58 2020


	Wfn Parameters:
	--------------------
	Wavefunction         = CCSD_T
	Number of irreps     = 4
	Number of MOs        = 28
	Number of active MOs = 26
	AO-Basis             = NONE
	Semicanonical        = false
	Reference            = RHF
	Print Level          = 1

	IRREP	# MOs	# FZDC	# DOCC	# SOCC	# VIRT	# FZVR
	-----	-----	------	------	------	------	------
	 A1	   14	    2	    3	    0	    9	    0
	 A2	   2	    0	    0	    0	    2	    0
	 B1	   6	    0	    1	    0	    5	    0
	 B2	   6	    0	    1	    0	    5	    0
	Transforming integrals...
	IWL integrals will be deleted.
	(OO|OO)...
	Presorting SO-basis two-electron integrals.
	Sorting File: SO Ints (nn|nn) nbuckets = 1
	Transforming the one-electron integrals and constructing Fock matrices
	Starting first half-transformation.
	Sorting half-transformed integrals.
	First half integral transformation complete.
	Starting second half-transformation.
	Two-electron integral transformation complete.
	(OO|OV)...
	Starting second half-transformation.
	Two-electron integral transformation complete.
	(OO|VV)...
	Starting second half-transformation.
	Two-electron integral transformation complete.
	(OV|OO)...
	Starting first half-transformation.
	Sorting half-transformed integrals.
	First half integral transformation complete.
	Starting second half-transformation.
	Two-electron integral transformation complete.
	(OV|OV)...
	Starting second half-transformation.
	Two-electron integral transformation complete.
	(OV|VV)...
	Starting second half-transformation.
	Two-electron integral transformation complete.
	(VV|OO)...
	Starting first half-transformation.
	Sorting half-transformed integrals.
	First half integral transformation complete.
	Starting second half-transformation.
	Two-electron integral transformation complete.
	(VV|OV)...
	Starting second half-transformation.
	Two-electron integral transformation complete.
	(VV|VV)...
	Starting second half-transformation.
	Two-electron integral transformation complete.
	Frozen core energy     =   -102.22971774156795

	Size of irrep 0 of <ab|cd> integrals:      0.018 (MW) /      0.146 (MB)
	Size of irrep 1 of <ab|cd> integrals:      0.007 (MW) /      0.059 (MB)
	Size of irrep 2 of <ab|cd> integrals:      0.012 (MW) /      0.097 (MB)
	Size of irrep 3 of <ab|cd> integrals:      0.012 (MW) /      0.097 (MB)
	Total:                                     0.050 (MW) /      0.399 (MB)

	Size of irrep 0 of <ia|bc> integrals:      0.005 (MW) /      0.040 (MB)
	Size of irrep 1 of <ia|bc> integrals:      0.001 (MW) /      0.011 (MB)
	Size of irrep 2 of <ia|bc> integrals:      0.003 (MW) /      0.023 (MB)
	Size of irrep 3 of <ia|bc> integrals:      0.003 (MW) /      0.023 (MB)
	Total:                                     0.012 (MW) /      0.097 (MB)

	Size of irrep 0 of tijab amplitudes:       0.001 (MW) /      0.012 (MB)
	Size of irrep 1 of tijab amplitudes:       0.000 (MW) /      0.001 (MB)
	Size of irrep 2 of tijab amplitudes:       0.001 (MW) /      0.005 (MB)
	Size of irrep 3 of tijab amplitudes:       0.001 (MW) /      0.005 (MB)
	Total:                                     0.003 (MW) /      0.024 (MB)

	Nuclear Rep. energy          =     21.52801332567168
	SCF energy                   =   -112.73871630933735
	One-electron energy          =    -55.94416894801453
	Two-electron energy          =     23.90715705457346
	Reference energy             =   -112.73871630933733

*** tstop() called on n216.ecompute at Tue Sep 22 09:44:58 2020
Module time:
	user time   =       0.34 seconds =       0.01 minutes
	system time =       0.06 seconds =       0.00 minutes
	total time  =          0 seconds =       0.00 minutes
Total time:
	user time   =       2.39 seconds =       0.04 minutes
	system time =       0.25 seconds =       0.00 minutes
	total time  =          1 seconds =       0.02 minutes
            **************************
            *                        *
            *        CCENERGY        *
            *                        *
            **************************

    Nuclear Rep. energy (wfn)     =   21.528013325671683
    SCF energy          (wfn)     = -112.738716309337349
    Reference energy    (file100) = -112.738716309337335

    Input parameters:
    -----------------
    Wave function   =     CCSD_T
    Reference wfn   =     RHF
    Brueckner       =     No
    Memory (Mbytes) =     524.3
    Maxiter         =     50
    R_Convergence   =     1.0e-07
    E_Convergence   =     1.0e-10
    Restart         =     Yes
    DIIS            =     Yes
    AO Basis        =     NONE
    ABCD            =     NEW
    Cache Level     =     2
    Cache Type      =     LOW
    Print Level     =     1
    Num. of threads =     4
    # Amps to Print =     10
    Print MP2 Amps? =     No
    Analyze T2 Amps =     No
    Print Pair Ener =     No
    Local CC        =     No
    SCS-MP2         =     False
    SCSN-MP2        =     False
    SCS-CCSD        =     False

MP2 correlation energy -0.2960391167095979
                Solving CC Amplitude Equations
                ------------------------------
  Iter             Energy              RMS        T1Diag      D1Diag    New D1Diag    D2Diag
  ----     ---------------------    ---------   ----------  ----------  ----------   --------
     0        -0.296039116709598    0.000e+00    0.000000    0.000000    0.000000    0.145555
     1        -0.285667548805471    7.904e-02    0.019799    0.043095    0.043095    0.144379
     2        -0.298105614676307    3.167e-02    0.017971    0.038661    0.038661    0.154736
     3        -0.301831180681854    1.293e-02    0.021935    0.047213    0.047213    0.162491
     4        -0.301580038071838    2.453e-03    0.022344    0.047986    0.047986    0.163507
     5        -0.301707027709263    9.796e-04    0.022572    0.048465    0.048465    0.164044
     6        -0.301707134438360    1.645e-04    0.022601    0.048528    0.048528    0.164027
     7        -0.301708979812916    3.183e-05    0.022606    0.048540    0.048540    0.164023
     8        -0.301708830852728    8.314e-06    0.022608    0.048544    0.048544    0.164021
     9        -0.301708578408006    1.913e-06    0.022608    0.048545    0.048545    0.164021
    10        -0.301708564699170    4.443e-07    0.022608    0.048545    0.048545    0.164020
    11        -0.301708559600005    1.248e-07    0.022608    0.048545    0.048545    0.164020
    12        -0.301708562848428    2.540e-08    0.022608    0.048545    0.048545    0.164020
    13        -0.301708564171387    4.900e-09    0.022608    0.048545    0.048545    0.164020
    14        -0.301708563985401    1.558e-09    0.022608    0.048545    0.048545    0.164020
    15        -0.301708564075331    6.008e-10    0.022608    0.048545    0.048545    0.164020
    16        -0.301708564084793    1.111e-10    0.022608    0.048545    0.048545    0.164020

    Iterations converged.


    Largest TIA Amplitudes:
              3  11         0.0426845372
              4  16         0.0426845372
              3  12         0.0184433711
              4  17         0.0184433711
              2   0         0.0124840585
              3  13        -0.0107082587
              4  18        -0.0107082587
              2   2        -0.0089621009
              3  14         0.0082046021
              4  19         0.0082046021

    Largest TIjAb Amplitudes:
      3   3  11  11        -0.0829970421
      4   4  16  16        -0.0829970421
      2   2  11  11        -0.0608484936
      2   2  16  16        -0.0608484936
      3   4  11  16        -0.0545491483
      4   3  16  11        -0.0545491483
      2   2   1   1        -0.0446908402
      3   3  13  13        -0.0283771248
      4   4  18  18        -0.0283771248
      3   3  11  13        -0.0280128795

    SCF energy       (wfn)                    = -112.738716309337349
    Reference energy (file100)                = -112.738716309337335

    Opposite-spin MP2 correlation energy      =   -0.217295367812236
    Same-spin MP2 correlation energy          =   -0.078743748897362
    MP2 correlation energy                    =   -0.296039116709598
      * MP2 total energy                      = -113.034755426046928

    Opposite-spin CCSD correlation energy     =   -0.235949059558218
    Same-spin CCSD correlation energy         =   -0.065759504526575
    CCSD correlation energy                   =   -0.301708564084793
      * CCSD total energy                     = -113.040424873422126

            **************************
            *                        *
            *        CCTRIPLES       *
            *                        *
            **************************


    Wave function   =    CCSD_T
    Reference wfn   =      RHF

    Nuclear Rep. energy (wfn)                =   21.528013325671683
    SCF energy          (wfn)                = -112.738716309337349
    Reference energy    (file100)            = -112.738716309337335
    CCSD energy         (file100)            =   -0.301708564084793
    Total CCSD energy   (file100)            = -113.040424873422126

    Number of ijk index combinations:               35
    Memory available in words        :        65536000
    ~Words needed per explicit thread:            2916
    Number of threads for explicit ijk threading:    4

    MKL num_threads set to 1 for explicit threading.

    (T) energy                                =   -0.012112620169263
      * CCSD(T) total energy                  = -113.052537493591387


    Psi4 stopped on: Tuesday, 22 September 2020 09:44AM
    Psi4 wall time for execution: 0:00:01.92

*** Psi4 exiting successfully. Buy a developer a beer!
