
 Primary working directories    : /tmp/320938.416.gen4.q
 Secondary working directories  : /tmp/320938.416.gen4.q
 Wavefunction directory         : /home/vulcan/mel64643/wfu/
 Main file repository           : /tmp/320938.416.gen4.q/

 ARCHNAME  : Linux/x86_64
 FC        : /opt/intel/compilers_and_libraries_2016.1.150/linux/bin/intel64/ifort
 FCVERSION : 16.0.1
 BLASLIB   : -mkl
 id        : ccgc

 Nodes     nprocs
 n065         3
 Number of processes for MPI-2 version of Molpro:   nprocs(total)=    4   nprocs(compute)=    3   nprocs(helper)=    1
 ga_uses_ma=false, calling ma_init with nominal heap.
 GA-space will be limited to   8.0 MW (determined by -G option)

 Using customized tuning parameters: mindgm=10; mindgv=16; mindgc=4; mindgr=1; noblas=0; mincuda=1000; minvec=7
 default implementation of scratch files=sf  

 ***,Frequencies for min3
 memory,1000,m
 gthresh,energy=1.0d-10,orbital=1.0d-10,oneint=1.0d-16,twoint=1.0d-16,optgrad=1.0d-6,compress=1.0d-13
 geomtyp=xyz
 
  geometry = {
  12
  arbitrary comment
     C    1.776964391707    0.711398808326   -0.047331391796
     C    0.491811976407   -0.059992870174   -0.195858138425
     C    0.450334595838   -1.536294104051    0.101225781021
     O   -0.560740969492    0.727246358156    0.254257222591
     O   -1.837861720730    0.092262278029   -0.120533731557
     H    2.585291162371    0.211419103145   -0.609810651840
     H    1.660284430446    1.742808833308   -0.427863021658
     H    2.095551815210    0.774113946047    1.016245370598
     H   -0.505012883580   -1.982784279037   -0.220127328243
     H    1.281670071535   -2.047274333141   -0.417927293703
     H    0.562228973366   -1.719049614183    1.194235055203
     H   -1.988436673053    0.550781380811   -0.966702932724
  }
 
 basis=cc-pvdz
 {rhf;maxit,200}
 {uccsd(t);maxit,200}

 Variables initialized (661), CPU time= 0.00 sec
 Commands  initialized (458), CPU time= 0.00 sec, 486 directives.
 Default parameters read. Elapsed time= 0.06 sec

 Checking input...
 Passed
1


                                         ***  PROGRAM SYSTEM MOLPRO  ***
                         Copyright, University College Cardiff Consultants Limited, 2008

                                    Version 2010.1 linked May 16 2016 07:17:05


 **********************************************************************************************************************************
 LABEL *   Frequencies for min3                                                          
 Linux-4.4.3/n065(x86_64) 64 bit mpp version                                             DATE: 07-Mar-20          TIME: 03:24:35  
 **********************************************************************************************************************************

 SHA1:             9e8077add272b0f3cad6f7df79ec5211205f459d
 **********************************************************************************************************************************

 THRESHOLDS:

 ZERO    =  1.00D-12  ONEINT  =  1.00D-16  TWOINT  =  1.00D-16  PREFAC  =  1.00D-14  LOCALI  =  1.00D-09  EORDER  =  1.00D-04
 ENERGY  =  1.00D-10  ETEST   =  0.00D+00  EDENS   =  0.00D+00  THRDEDEF=  1.00D-06  GRADIENT=  1.00D-02  STEP    =  1.00D-03
 ORBITAL =  1.00D-10  CIVEC   =  1.00D-05  COEFF   =  1.00D-04  PRINTCI =  5.00D-02  PUNCHCI =  9.90D+01  OPTGRAD =  1.00D-06
 OPTENERG=  1.00D-06  OPTSTEP =  3.00D-04  THRGRAD =  1.00D-10  COMPRESS=  1.00D-13  VARMIN  =  1.00D-07  VARMAX  =  1.00D-03
 THRDOUB =  0.00D+00  THRDIV  =  1.00D-05  THRRED  =  1.00D-07  THRPSP  =  1.00D+00  THRDC   =  1.00D-10  THRCS   =  1.00D-10
 THRNRM  =  1.00D-08  THREQ   =  0.00D+00  THRDE   =  1.00D+00  THRREF  =  1.00D-05  SPARFAC =  1.00D+00  THRDLP  =  1.00D-07
 THRDIA  =  1.00D-10  THRDLS  =  1.00D-07  THRGPS  =  0.00D+00  THRKEX  =  0.00D+00  THRDIS  =  2.00D-01  THRVAR  =  1.00D-10
 THRLOC  =  1.00D-06  THRGAP  =  1.00D-06  THRLOCT = -1.00D+00  THRGAPT = -1.00D+00  THRORB  =  1.00D-06  THRMLTP =  0.00D+00
 THRCPQCI=  1.00D-10  KEXTA   =  0.00D+00  THRCOARS=  0.00D+00  SYMTOL  =  1.00D-06  GRADTOL =  1.00D-06  THROVL  =  1.00D-08
 THRORTH =  1.00D-08  GRID    =  1.00D-06  GRIDMAX =  1.00D-03  DTMAX   =  0.00D+00

 SETTING GEOMTYP        =    XYZ

 Variable memory set to 1000000000 words,  buffer space   230000 words

 SETTING BASIS          =    CC-PVDZ


 Recomputing integrals since basis changed


 Using spherical harmonics

 Library entry C      S cc-pVDZ              selected for orbital group  1
 Library entry C      P cc-pVDZ              selected for orbital group  1
 Library entry C      D cc-pVDZ              selected for orbital group  1
 Library entry O      S cc-pVDZ              selected for orbital group  2
 Library entry O      P cc-pVDZ              selected for orbital group  2
 Library entry O      D cc-pVDZ              selected for orbital group  2
 Library entry H      S cc-pVDZ              selected for orbital group  3
 Library entry H      P cc-pVDZ              selected for orbital group  3

1PROGRAM * SEWARD (Integral evaluation for generally contracted gaussian basis sets)     Author: Roland Lindh, 1990

 Geometry written to block  1 of record 700


 Point group  C1  



 ATOMIC COORDINATES

 NR  ATOM    CHARGE       X              Y              Z

   1  C       6.00    3.357976046    1.344348918   -0.089443368
   2  C       6.00    0.929389944   -0.113370094   -0.370118242
   3  C       6.00    0.851009054   -2.903175114    0.191289004
   4  O       8.00   -1.059646863    1.374296447    0.480476518
   5  O       8.00   -3.473055320    0.174350438   -0.227775742
   6  H       1.00    4.885492267    0.399524204   -1.152375124
   7  H       1.00    3.137482874    3.293431394   -0.808543933
   8  H       1.00    3.960019025    1.462863353    1.920425433
   9  H       1.00   -0.954336043   -3.746919265   -0.415980364
  10  H       1.00    2.422005426   -3.868787806   -0.789768128
  11  H       1.00    1.062458783   -3.248532977    2.256777191
  12  H       1.00   -3.757600742    1.040825968   -1.826803793

 Bond lengths in Bohr (Angstrom)

 1-2  2.846357946  1-6  2.087060963  1-7  2.089173368  1-8  2.101445697  2-3  2.846811147
     ( 1.506227754)     ( 1.104425096)     ( 1.105542932)     ( 1.112037169)     ( 1.506467577)

  2- 4  2.625439126   3- 9  2.083254952   3-10  2.088758140   3-11  2.104809847   4- 5  2.786760138
       ( 1.389322549)       ( 1.102411041)       ( 1.105323203)       ( 1.113817400)       ( 1.474689952)

  5-12  1.840824992
       ( 0.974122631)

 Bond angles

  1-2-3  120.39278627   1-2-4  108.92100283   2-1-6  110.02359952   2-1-7  110.72002327

  2- 1- 8  111.56980584   2- 3- 9  111.30156487   2- 3-10  109.85864220   2- 3-11  110.58216240

  2- 4- 5  109.25523944   3- 2- 4  118.06926981   4- 5-12   98.74019372   6- 1- 7  108.92275530

  6- 1- 8  107.63496247   7- 1- 8  107.86800420   9- 3-10  109.12555011   9- 3-11  107.85797849

 10- 3-11  108.02903833

 NUCLEAR CHARGE:                   41
 NUMBER OF PRIMITIVE AOS:         184
 NUMBER OF SYMMETRY AOS:          179
 NUMBER OF CONTRACTIONS:          105   ( 105A   )
 NUMBER OF CORE ORBITALS:           5   (   5A   )
 NUMBER OF VALENCE ORBITALS:       27   (  27A   )


 NUCLEAR REPULSION ENERGY  183.23652836


 Eigenvalues of metric

         1 0.345E-02 0.435E-02 0.105E-01 0.141E-01 0.182E-01 0.213E-01 0.331E-01 0.345E-01


 Contracted 2-electron integrals neglected if value below      1.0D-16
 AO integral compression algorithm  1   Integral accuracy      1.0D-16

     127.140 MB (compressed) written to integral file ( 93.6%)

     Node minimum: 40.108 MB, node maximum: 45.351 MB


 NUMBER OF SORTED TWO-ELECTRON INTEGRALS:    5164320.     BUFFER LENGTH:  32768
 NUMBER OF SEGMENTS:   1  SEGMENT LENGTH:    5164320      RECORD LENGTH: 524288

 Memory used in sort:       5.72 MW

 SORT1 READ    17075332. AND WROTE     5135905. INTEGRALS IN     15 RECORDS. CPU TIME:     0.22 SEC, REAL TIME:     0.26 SEC
 SORT2 READ    15396672. AND WROTE    15487395. INTEGRALS IN    519 RECORDS. CPU TIME:     0.07 SEC, REAL TIME:     0.11 SEC

 Node minimum:     5160610.  Node maximum:     5164320. integrals

 OPERATOR DM      FOR CENTER  0  COORDINATES:    0.000000    0.000000    0.000000


 **********************************************************************************************************************************
 DATASETS  * FILE   NREC   LENGTH (MB)   RECORD NAMES
              1      18        3.17       500      610      700      900      950      970     1000      129      960     1100   
                                          VAR    BASINP    GEOM    SYMINP    ZMAT    AOBASIS   BASIS     P2S    ABASIS      S 
                                         1400     1410     1200     1210     1080     1600     1650     1700   
                                           T        V       H0       H01     AOSYM     SMH    MOLCAS    OPER   

 PROGRAMS   *        TOTAL       INT
 CPU TIMES  *         0.92      0.88
 REAL TIME  *         1.39 SEC
 DISK USED  *       306.97 MB      
 GA USED    *         0.00 MB       (max)       0.00 MB       (current)
 **********************************************************************************************************************************

1PROGRAM * RHF-SCF (OPEN SHELL)       Authors: W. Meyer, H.-J. Werner


 NUMBER OF ELECTRONS:      21+   20-    SPACE SYMMETRY=1    SPIN SYMMETRY: Doublet 
 CONVERGENCE THRESHOLDS:    1.00E-10 (Density)    1.00E-11 (Energy)
 MAX. NUMBER OF ITERATIONS:      200
 INTERPOLATION TYPE:            DIIS
 INTERPOLATION STEPS:              2 (START)      1 (STEP)
 LEVEL SHIFTS:                 -0.30 (CLOSED)  0.00 (OPEN) 



 Orbital guess generated from atomic densities. Full valence occupancy:   32

 Molecular orbital dump at record        2100.2

 ITERATION    DDIFF          GRAD             ENERGY        2-EL.EN.            DIPOLE MOMENTS         DIIS
    1      0.000D+00      0.000D+00      -267.17827199    555.846199    0.57037    0.04928   -0.74940    0
    2      0.000D+00      0.617D-02      -267.24895929    555.765448    0.41406   -0.13127   -0.59852    1
    3      0.928D-02      0.214D-02      -267.26114273    555.683650    0.39374   -0.05933   -0.62568    2
    4      0.336D-02      0.912D-03      -267.26475731    555.835996    0.37910   -0.09952   -0.64201    3
    5      0.186D-02      0.364D-03      -267.26532866    555.807376    0.38162   -0.09306   -0.63498    4
    6      0.793D-03      0.110D-03      -267.26540566    555.793637    0.37988   -0.09286   -0.63771    5
    7      0.278D-03      0.513D-04      -267.26542598    555.790639    0.37916   -0.09261   -0.63721    6
    8      0.144D-03      0.274D-04      -267.26543210    555.788690    0.37943   -0.09273   -0.63742    7
    9      0.929D-04      0.115D-04      -267.26543302    555.789011    0.37962   -0.09268   -0.63718    8
   10      0.367D-04      0.502D-05      -267.26543318    555.789622    0.37987   -0.09269   -0.63725    9
   11      0.147D-04      0.197D-05      -267.26543321    555.789462    0.37992   -0.09269   -0.63725    9
   12      0.652D-05      0.672D-06      -267.26543321    555.789597    0.37994   -0.09269   -0.63725    9
   13      0.228D-05      0.227D-06      -267.26543321    555.789513    0.37995   -0.09269   -0.63725    9
   14      0.634D-06      0.761D-07      -267.26543321    555.789521    0.37995   -0.09269   -0.63725    9
   15      0.194D-06      0.303D-07      -267.26543321    555.789517    0.37995   -0.09269   -0.63725    9
   16      0.832D-07      0.147D-07      -267.26543321    555.789519    0.37995   -0.09269   -0.63725    9
   17      0.379D-07      0.760D-08      -267.26543321    555.789519    0.37995   -0.09269   -0.63725    9
   18      0.226D-07      0.344D-08      -267.26543321    555.789519    0.37995   -0.09269   -0.63725    9
   19      0.115D-07      0.134D-08      -267.26543321    555.789519    0.37995   -0.09269   -0.63725    9
   20      0.446D-08      0.573D-09      -267.26543321    555.789519    0.37995   -0.09269   -0.63725    9
   21      0.168D-08      0.289D-09      -267.26543321    555.789519    0.37995   -0.09269   -0.63725    9
   22      0.764D-09      0.163D-09      -267.26543321    555.789519    0.37995   -0.09269   -0.63725    9
   23      0.450D-09      0.802D-10      -267.26543321    555.789519    0.37995   -0.09269   -0.63725    9
   24      0.265D-09      0.320D-10      -267.26543321    555.789519    0.37995   -0.09269   -0.63725    9
   25      0.941D-10      0.130D-10      -267.26543321    555.789519    0.37995   -0.09269   -0.63725    0

 Final alpha occupancy:  21
 Final beta  occupancy:  20

 !RHF STATE 1.1 Energy               -267.265433208288
 Nuclear energy                       183.23652836
 One-electron energy                 -728.39672110
 Two-electron energy                  277.89475953
 Virial quotient                       -1.00154229
 !RHF STATE 1.1 Dipole moment           0.37994976    -0.09269285    -0.63724599
 Dipole moment /Debye                   0.96567272    -0.23558629    -1.61961166

 Orbital energies:

         1.1          2.1          3.1          4.1          5.1          6.1          7.1          8.1          9.1         10.1
    -20.630485   -20.628807   -11.279146   -11.237681   -11.232170    -1.470228    -1.240847    -1.023279    -0.945435    -0.768547

        11.1         12.1         13.1         14.1         15.1         16.1         17.1         18.1         19.1         20.1
     -0.704659    -0.643007    -0.626809    -0.588984    -0.545186    -0.543418    -0.539100    -0.516904    -0.493066    -0.469823

        21.1         22.1         23.1
     -0.352041     0.181272     0.183585


 **********************************************************************************************************************************
 DATASETS  * FILE   NREC   LENGTH (MB)   RECORD NAMES
              1      18        3.17       500      610      700      900      950      970     1000      129      960     1100   
                                          VAR    BASINP    GEOM    SYMINP    ZMAT    AOBASIS   BASIS     P2S    ABASIS      S 
                                         1400     1410     1200     1210     1080     1600     1650     1700   
                                           T        V       H0       H01     AOSYM     SMH    MOLCAS    OPER   

              2       3        0.77       700     1000     2100   
                                         GEOM     BASIS     RHF  

 PROGRAMS   *        TOTAL       RHF       INT
 CPU TIMES  *         2.02      1.09      0.88
 REAL TIME  *         2.64 SEC
 DISK USED  *       323.54 MB      
 SF USED    *         0.04 MB      
 GA USED    *         0.00 MB       (max)       0.00 MB       (current)
 **********************************************************************************************************************************


1PROGRAM * CCSD (Unrestricted open-shell coupled cluster)     Authors: C. Hampel, H.-J. Werner, 1991, M. Deegan, P.J. Knowles, 1992


 Convergence thresholds:  THRVAR = 1.00D-08  THRDEN = 1.00D-10

 CCSD(T)     terms to be evaluated (factor= 1.000)


 Number of core orbitals:           5 (   5 )
 Number of closed-shell orbitals:  15 (  15 )
 Number of active  orbitals:        1 (   1 )
 Number of external orbitals:      84 (  84 )

 Memory could be reduced to 24.91 Mwords without degradation in triples

 Number of N-1 electron functions:              31
 Number of N-2 electron functions:             465
 Number of singly external CSFs:              2635
 Number of doubly external CSFs:           2537250
 Total number of CSFs:                     2539885

 Molecular orbitals read from record     2100.2  Type=RHF/CANONICAL (state 1.1)

 Integral transformation finished. Total CPU:   0.92 sec, npass=  1  Memory used:  12.63 MW

 Starting RMP2 calculation

 ITER.      SQ.NORM     CORR.ENERGY   TOTAL ENERGY   ENERGY CHANGE        DEN1      VAR(S)    VAR(P)  DIIS     TIME
   1      1.24298869    -0.78634437  -268.05177758    -0.78634437    -0.00304864  0.20D-04  0.11D-02  1  1     1.24
   2      1.24562868    -0.78963208  -268.05506528    -0.00328771    -0.00000474  0.54D-06  0.19D-05  2  2     1.54
   3      1.24569418    -0.78967411  -268.05510732    -0.00004203    -0.00000003  0.16D-07  0.68D-08  3  3     1.87
   4      1.24569513    -0.78967411  -268.05510732    -0.00000000    -0.00000000  0.27D-09  0.38D-10  4  4     2.23
   5      1.24569521    -0.78967414  -268.05510735    -0.00000003    -0.00000000  0.25D-11  0.65D-12  5  5     2.61
   6      1.24569522    -0.78967415  -268.05510736    -0.00000001    -0.00000000  0.28D-13  0.86D-14  6  6     3.01
   7      1.24569522    -0.78967415  -268.05510736     0.00000000    -0.00000000  0.47D-15  0.12D-15  6  1     3.42
   8      1.24569522    -0.78967415  -268.05510736     0.00000000    -0.00000000  0.59D-17  0.13D-17  6  2     3.84

 Norm of t1 vector:      0.03894566      S-energy:    -0.00227349      T1 diagnostic:  0.00054991
 Norm of t2 vector:      0.49414417      P-energy:    -0.78740066
                                         Alpha-Beta:  -0.59338269
                                         Alpha-Alpha: -0.10094027
                                         Beta-Beta:   -0.09307769

 Spin contamination <S**2-Sz**2-Sz>     0.00104068
  Reference energy                   -267.265433208288
  RHF-RMP2 correlation energy          -0.789674147432
 !RHF-RMP2 energy                    -268.055107355720

 Starting UCCSD calculation

 ITER.      SQ.NORM     CORR.ENERGY   TOTAL ENERGY   ENERGY CHANGE        DEN1      VAR(S)    VAR(P)  DIIS     TIME
   1      1.26275971    -0.80902041  -268.07445362    -0.80902041    -0.02514975  0.38D-02  0.59D-02  1  1     9.19
   2      1.29152268    -0.83642303  -268.10185624    -0.02740262    -0.00201001  0.22D-03  0.66D-03  2  2    14.54
   3      1.30145819    -0.84091882  -268.10635203    -0.00449579    -0.00032446  0.19D-03  0.56D-04  3  3    19.92
   4      1.30636927    -0.84239518  -268.10782839    -0.00147636    -0.00007207  0.43D-04  0.14D-04  4  4    25.30
   5      1.30909891    -0.84278319  -268.10821640    -0.00038801    -0.00002368  0.19D-04  0.32D-05  5  5    30.68
   6      1.31103860    -0.84298766  -268.10842087    -0.00020447    -0.00000647  0.42D-05  0.12D-05  6  6    36.08
   7      1.31198921    -0.84304651  -268.10847972    -0.00005885    -0.00000209  0.14D-05  0.37D-06  6  2    41.52
   8      1.31243219    -0.84308926  -268.10852247    -0.00004275    -0.00000066  0.45D-06  0.11D-06  6  1    46.96
   9      1.31261850    -0.84309388  -268.10852709    -0.00000462    -0.00000022  0.15D-06  0.35D-07  6  4    52.41
  10      1.31268211    -0.84309682  -268.10853003    -0.00000294    -0.00000005  0.35D-07  0.96D-08  6  3    57.85
  11      1.31271182    -0.84309557  -268.10852878     0.00000125    -0.00000002  0.13D-07  0.28D-08  6  5    63.32
  12      1.31272228    -0.84309532  -268.10852852     0.00000026    -0.00000000  0.26D-08  0.96D-09  6  6    68.75
  13      1.31272113    -0.84309440  -268.10852761     0.00000092    -0.00000000  0.96D-09  0.29D-09  6  2    74.20
  14      1.31271591    -0.84309355  -268.10852676     0.00000085    -0.00000000  0.21D-09  0.68D-10  6  1    79.64
  15      1.31271183    -0.84309296  -268.10852617     0.00000059    -0.00000000  0.78D-10  0.19D-10  6  4    85.09
  16      1.31270864    -0.84309258  -268.10852579     0.00000038    -0.00000000  0.28D-10  0.63D-11  6  3    90.54
  17      1.31270644    -0.84309234  -268.10852555     0.00000024    -0.00000000  0.10D-10  0.24D-11  6  5    95.98
  18      1.31270553    -0.84309228  -268.10852549     0.00000006    -0.00000000  0.41D-11  0.87D-12  6  6   101.42
  19      1.31270492    -0.84309225  -268.10852545     0.00000003    -0.00000000  0.16D-11  0.37D-12  6  2   106.82
  20      1.31270460    -0.84309223  -268.10852544     0.00000001    -0.00000000  0.60D-12  0.13D-12  6  1   112.25
  21      1.31270443    -0.84309222  -268.10852543     0.00000001    -0.00000000  0.28D-12  0.58D-13  6  4   117.73
  22      1.31270431    -0.84309221  -268.10852542     0.00000001    -0.00000000  0.74D-13  0.21D-13  6  3   123.22
  23      1.31270425    -0.84309221  -268.10852542     0.00000000    -0.00000000  0.21D-13  0.63D-14  6  5   128.72
  24      1.31270424    -0.84309221  -268.10852542    -0.00000000    -0.00000000  0.67D-14  0.23D-14  6  6   134.21
  25      1.31270425    -0.84309221  -268.10852542    -0.00000000    -0.00000000  0.21D-14  0.52D-15  6  2   139.70
  26      1.31270426    -0.84309221  -268.10852542    -0.00000000    -0.00000000  0.77D-15  0.15D-15  6  1   145.22
  27      1.31270427    -0.84309222  -268.10852542    -0.00000000    -0.00000000  0.20D-15  0.63D-16  6  3   150.69
  28      1.31270427    -0.84309222  -268.10852542    -0.00000000    -0.00000000  0.30D-16  0.11D-16  6  4   156.16
  29      1.31270427    -0.84309222  -268.10852542    -0.00000000    -0.00000000  0.71D-17  0.29D-17  6  5   161.63
  30      1.31270427    -0.84309222  -268.10852542    -0.00000000    -0.00000000  0.15D-17  0.54D-18  6  6   167.13
  31      1.31270427    -0.84309222  -268.10852542    -0.00000000    -0.00000000  0.36D-18  0.10D-18  6  2   172.60

 Norm of t1 vector:      0.13871597      S-energy:    -0.00282342      T1 diagnostic:  0.01616776
                                                                       D1 diagnostic:  0.06278947
 Norm of t2 vector:      0.54172147      P-energy:    -0.84026880
                                         Alpha-Beta:  -0.66482069
                                         Alpha-Alpha: -0.09147617
                                         Beta-Beta:   -0.08397194

 Spin contamination <S**2-Sz**2-Sz>     0.00217560

 Memory could be reduced to 28.85 Mwords without degradation in triples
 

 RESULTS
 =======

  Reference energy                   -267.265433208288
  UCCSD singles energy                 -0.002823416461
  UCCSD pair energy                    -0.840268799316
  UCCSD correlation energy             -0.843092215777
  Triples (T) contribution             -0.024970346364
  Total correlation energy             -0.868062562141
 
  RHF-UCCSD energy                   -268.108525424064
  RHF-UCCSD[T] energy                -268.134830802021
  RHF-UCCSD-T energy                 -268.133074683537
 !RHF-UCCSD(T) energy                -268.133495770429

 Program statistics:

 Available memory in ccsd:               999997692
 Min. memory needed in ccsd:               7337057
 Max. memory used in ccsd:                10523002
 Max. memory used in cckext:              10867977 (31 integral passes)
 Max. memory used in cckint:              12633073 ( 1 integral passes)



 **********************************************************************************************************************************
 DATASETS  * FILE   NREC   LENGTH (MB)   RECORD NAMES
              1      18        3.17       500      610      700      900      950      970     1000      129      960     1100   
                                          VAR    BASINP    GEOM    SYMINP    ZMAT    AOBASIS   BASIS     P2S    ABASIS      S 
                                         1400     1410     1200     1210     1080     1600     1650     1700   
                                           T        V       H0       H01     AOSYM     SMH    MOLCAS    OPER   

              2       3        0.77       700     1000     2100   
                                         GEOM     BASIS     RHF  

 PROGRAMS   *        TOTAL  UCCSD(T)       RHF       INT
 CPU TIMES  *       220.68    218.67      1.09      0.88
 REAL TIME  *       235.99 SEC
 DISK USED  *         1.29 GB      
 SF USED    *       553.73 MB      
 GA USED    *         0.00 MB       (max)       0.00 MB       (current)
 **********************************************************************************************************************************

        UCCSD(T)        RHF-SCF 
   -268.13349577   -267.26543321
 **********************************************************************************************************************************
 Variable memory released
