
    -----------------------------------------------------------------------
          Psi4: An Open-Source Ab Initio Electronic Structure Package
                               Psi4 1.3.2 release

                         Git: Rev {HEAD} ecbda83 


    R. M. Parrish, L. A. Burns, D. G. A. Smith, A. C. Simmonett,
    A. E. DePrince III, E. G. Hohenstein, U. Bozkaya, A. Yu. Sokolov,
    R. Di Remigio, R. M. Richard, J. F. Gonthier, A. M. James,
    H. R. McAlexander, A. Kumar, M. Saitow, X. Wang, B. P. Pritchard,
    P. Verma, H. F. Schaefer III, K. Patkowski, R. A. King, E. F. Valeev,
    F. A. Evangelista, J. M. Turney, T. D. Crawford, and C. D. Sherrill,
    J. Chem. Theory Comput. 13(7) pp 3185--3197 (2017).
    (doi: 10.1021/acs.jctc.7b00174)


                         Additional Contributions by
    P. Kraus, H. Kruse, M. H. Lechner, M. C. Schieber, R. A. Shaw,
    A. Alenaizan, R. Galvelis, Z. L. Glick, S. Lehtola, and J. P. Misiewicz

    -----------------------------------------------------------------------


    Psi4 started on: Monday, 06 June 2022 11:25AM

    Process ID: 94557
    Host:       d2-11.compute.lan
    PSIDATADIR: /apps/gb/PSI4/1.3.2/share/psi4
    Memory:     500.0 MiB
    Threads:    4
    
  ==> Input File <==

--------------------------------------------------------------------------
memory 300 mb

molecule {
  O    0.000000000000   -0.000000000000   -0.070948493000
  H    0.000000000000   -0.761068247500    0.563002034600
  H   -0.000000000000    0.761068247500    0.563002034600
}

set basis sto-3g
energy('scf')
--------------------------------------------------------------------------

  Memory set to 286.102 MiB by Python driver.

*** tstart() called on d2-11.compute.lan
*** at Mon Jun  6 11:25:49 2022

   => Loading Basis Set <=

    Name: STO-3G
    Role: ORBITAL
    Keyword: BASIS
    atoms 1   entry O          line    81 file /apps/gb/PSI4/1.3.2/share/psi4/basis/sto-3g.gbs 
    atoms 2-3 entry H          line    19 file /apps/gb/PSI4/1.3.2/share/psi4/basis/sto-3g.gbs 


         ---------------------------------------------------------
                                   SCF
               by Justin Turney, Rob Parrish, Andy Simmonett
                          and Daniel G. A. Smith
                              RHF Reference
                        4 Threads,    286 MiB Core
         ---------------------------------------------------------

  ==> Geometry <==

    Molecular point group: c2v
    Full point group: C2v

    Geometry (in Angstrom), charge = 0, multiplicity = 1:

       Center              X                  Y                   Z               Mass       
    ------------   -----------------  -----------------  -----------------  -----------------
         O            0.000000000000     0.000000000000    -0.070948492967    15.994914619570
         H            0.000000000000    -0.761068247500     0.563002034633     1.007825032230
         H           -0.000000000000     0.761068247500     0.563002034633     1.007825032230

  Running in c2v symmetry.

  Rotational constants: A =     23.43236  B =     14.43890  C =      8.93389 [cm^-1]
  Rotational constants: A = 702484.47481  B = 432867.37680  C = 267831.16742 [MHz]
  Nuclear repulsion =    8.895574474644421

  Charge       = 0
  Multiplicity = 1
  Electrons    = 10
  Nalpha       = 5
  Nbeta        = 5

  ==> Algorithm <==

  SCF Algorithm Type is DF.
  DIIS enabled.
  MOM disabled.
  Fractional occupation disabled.
  Guess Type is SAD.
  Energy threshold   = 1.00e-06
  Density threshold  = 1.00e-06
  Integral threshold = 0.00e+00

  ==> Primary Basis <==

  Basis Set: STO-3G
    Blend: STO-3G
    Number of shells: 5
    Number of basis function: 7
    Number of Cartesian functions: 7
    Spherical Harmonics?: true
    Max angular momentum: 1

   => Loading Basis Set <=

    Name: (STO-3G AUX)
    Role: JKFIT
    Keyword: DF_BASIS_SCF
    atoms 1   entry O          line   323 file /apps/gb/PSI4/1.3.2/share/psi4/basis/def2-svp-jkfit.gbs 
    atoms 2-3 entry H          line    23 file /apps/gb/PSI4/1.3.2/share/psi4/basis/def2-svp-jkfit.gbs 

  ==> Pre-Iterations <==

   -------------------------------------------------------
    Irrep   Nso     Nmo     Nalpha   Nbeta   Ndocc  Nsocc
   -------------------------------------------------------
     A1         4       4       0       0       0       0
     A2         0       0       0       0       0       0
     B1         1       1       0       0       0       0
     B2         2       2       0       0       0       0
   -------------------------------------------------------
    Total       7       7       5       5       5       0
   -------------------------------------------------------

  ==> Integral Setup <==

  DFHelper Memory: AOs need 0.000 GiB; user supplied 0.210 GiB. Using in-core AOs.

  ==> MemDFJK: Density-Fitted J/K Matrices <==

    J tasked:                   Yes
    K tasked:                   Yes
    wK tasked:                   No
    OpenMP threads:               4
    Memory [MiB]:               214
    Algorithm:                 Core
    Schwarz Cutoff:           1E-12
    Mask sparsity (%):       0.0000
    Fitting Condition:        1E-10

   => Auxiliary Basis Set <=

  Basis Set: (STO-3G AUX)
    Blend: DEF2-SVP-JKFIT
    Number of shells: 37
    Number of basis function: 113
    Number of Cartesian functions: 133
    Spherical Harmonics?: true
    Max angular momentum: 4

  Minimum eigenvalue in the overlap matrix is 3.6389650824E-01.
  Using Symmetric Orthogonalization.

  SCF Guess: Superposition of Atomic Densities via on-the-fly atomic UHF.

  ==> Iterations <==

                           Total Energy        Delta E     RMS |[F,P]|

   @DF-RHF iter SAD:   -74.14547803786547   -7.41455e+01   0.00000e+00 
   @DF-RHF iter   1:   -74.91096817273517   -7.65490e-01   5.64313e-02 DIIS
   @DF-RHF iter   2:   -74.96491002905195   -5.39419e-02   9.07065e-03 DIIS
   @DF-RHF iter   3:   -74.96590974309437   -9.99714e-04   1.96702e-03 DIIS
   @DF-RHF iter   4:   -74.96597881113857   -6.90680e-05   1.62983e-04 DIIS
   @DF-RHF iter   5:   -74.96597966545588   -8.54317e-07   1.85268e-05 DIIS
   @DF-RHF iter   6:   -74.96597967516085   -9.70498e-09   2.58767e-07 DIIS
  Energy and wave function converged.


  ==> Post-Iterations <==

    Orbital Energies [Eh]
    ---------------------

    Doubly Occupied:                                                      

       1A1   -20.251489     2A1    -1.256627     1B2    -0.593972  
       3A1    -0.458695     1B1    -0.392309  

    Virtual:                                                              

       4A1     0.580184     2B2     0.692482  

    Final Occupation by Irrep:
             A1    A2    B1    B2 
    DOCC [     3,    0,    1,    1 ]

  @DF-RHF Final Energy:   -74.96597967516085

   => Energetics <=

    Nuclear Repulsion Energy =              8.8955744746444214
    One-Electron Energy =                -121.8169291579150837
    Two-Electron Energy =                  37.9553750081098116
    Total Energy =                        -74.9659796751608525

Computation Completed


Properties will be evaluated at   0.000000,   0.000000,   0.000000 [a0]

Properties computed using the SCF density matrix

  Nuclear Dipole Moment: [e a0]
     X:     0.0000      Y:     0.0000      Z:     1.0553

  Electronic Dipole Moment: [e a0]
     X:     0.0000      Y:     0.0000      Z:    -0.3844

  Dipole Moment: [e a0]
     X:     0.0000      Y:     0.0000      Z:     0.6709     Total:     0.6709

  Dipole Moment: [D]
     X:     0.0000      Y:     0.0000      Z:     1.7051     Total:     1.7051


*** tstop() called on d2-11.compute.lan at Mon Jun  6 11:25:49 2022
Module time:
	user time   =       1.65 seconds =       0.03 minutes
	system time =       0.10 seconds =       0.00 minutes
	total time  =          0 seconds =       0.00 minutes
Total time:
	user time   =       1.65 seconds =       0.03 minutes
	system time =       0.10 seconds =       0.00 minutes
	total time  =          0 seconds =       0.00 minutes

    Psi4 stopped on: Monday, 06 June 2022 11:25AM
    Psi4 wall time for execution: 0:00:00.79

*** Psi4 exiting successfully. Buy a developer a beer!
