
    -----------------------------------------------------------------------
          Psi4: An Open-Source Ab Initio Electronic Structure Package
                               Psi4 1.4a2.dev478 

                         Git: Rev {master} f722895 dirty


    R. M. Parrish, L. A. Burns, D. G. A. Smith, A. C. Simmonett,
    A. E. DePrince III, E. G. Hohenstein, U. Bozkaya, A. Yu. Sokolov,
    R. Di Remigio, R. M. Richard, J. F. Gonthier, A. M. James,
    H. R. McAlexander, A. Kumar, M. Saitow, X. Wang, B. P. Pritchard,
    P. Verma, H. F. Schaefer III, K. Patkowski, R. A. King, E. F. Valeev,
    F. A. Evangelista, J. M. Turney, T. D. Crawford, and C. D. Sherrill,
    J. Chem. Theory Comput. 13(7) pp 3185--3197 (2017).
    (doi: 10.1021/acs.jctc.7b00174)


                         Additional Contributions by
    P. Kraus, H. Kruse, M. H. Lechner, M. C. Schieber, R. A. Shaw,
    A. Alenaizan, R. Galvelis, Z. L. Glick, S. Lehtola, and J. P. Misiewicz

    -----------------------------------------------------------------------


    Psi4 started on: Friday, 05 June 2020 11:39AM

    Process ID: 25854
    Host:       n054
    PSIDATADIR: /opt/psi/4/master/share/psi4
    Memory:     500.0 MiB
    Threads:    4
    
  ==> Input File <==

--------------------------------------------------------------------------
set memory 40Gb

molecule {
    C   -1.169969463277   -0.774075714550   -0.000125580240
    H   -1.617202611977   -1.211544387650   -0.890367767540
    H   -1.617274396477   -1.211731322050    0.892489791180
    C   -1.170087778135    0.773896028978   -0.000058638427
    H   -1.617520594607    1.211233880120    0.890147369881
    H   -1.617329935298    1.211543339062   -0.890207763946
    C    0.356732246985    0.920125675927    0.000126465703
    H    0.841131893184    1.891613470709    0.000339804886
    O    0.761033604793    0.000226089980   -1.017884834425
    C    0.356873021077   -0.920070814472   -0.000176067283
    H    0.841421911515   -1.891484165894   -0.000279512817
    O    0.760803469775   -0.000109180071    1.017926555010
}

set {
    e_convergence 10
    d_convergence 10
    freeze_core True
    basis_guess True
    cc_type conv
    maxiter 300
}

E = energy('mp2/heavy-aug-cc-pV(Q+d)Z')
psi4.print_out("\n========================OPTAVC-XTPL==========================\n\n")
psi4.print_out("MP2/QZ correlation energy {}\n".format(variable("MP2 CORRELATION ENERGY")))
psi4.print_out("SCF/QZ reference energy {}\n".format(variable("CURRENT REFERENCE ENERGY")))
psi4.print_out("\n\n=============================================================\n")

E = energy('mp2/heavy-aug-cc-pV(T+d)Z')
psi4.print_out("\n========================OPTAVC-XTPL==========================\n\n")
psi4.print_out("MP2/TZ correlation energy {}".format(variable("MP2 CORRELATION ENERGY")))
psi4.print_out("\n\n=============================================================\n")
--------------------------------------------------------------------------

Scratch directory: /tmp/

Scratch directory: /tmp/
    SCF Algorithm Type (re)set to DF.

*** tstart() called on n054
*** at Fri Jun  5 11:39:05 2020


  //>>>>>>>>>>>>>>>>>>>>>>>>>>>>>>>>>>>//
  //      Guess SCF, pcseg-0 Basis     //
  //<<<<<<<<<<<<<<<<<<<<<<<<<<<<<<<<<<<//

   => Loading Basis Set <=

    Name: PCSEG-0
    Role: ORBITAL
    Keyword: BASIS
    atoms 1, 4, 7, 10     entry C          line    71 file /opt/psi/4/master/share/psi4/basis/pcseg-0.gbs 
    atoms 2-3, 5-6, 8, 11 entry H          line    13 file /opt/psi/4/master/share/psi4/basis/pcseg-0.gbs 
    atoms 9, 12           entry O          line   103 file /opt/psi/4/master/share/psi4/basis/pcseg-0.gbs 


         ---------------------------------------------------------
                           SCF Castup computation                  
         ---------------------------------------------------------
                                   SCF
               by Justin Turney, Rob Parrish, Andy Simmonett
                          and Daniel G. A. Smith
                              RHF Reference
                        4 Threads,    500 MiB Core
         ---------------------------------------------------------

  ==> Geometry <==

    Molecular point group: c1
    Full point group: C1

    Geometry (in Angstrom), charge = 0, multiplicity = 1:

       Center              X                  Y                   Z               Mass       
    ------------   -----------------  -----------------  -----------------  -----------------
         C           -1.169969463277    -0.774075714550    -0.000125580240    12.000000000000
         H           -1.617202611977    -1.211544387650    -0.890367767540     1.007825032230
         H           -1.617274396477    -1.211731322050     0.892489791180     1.007825032230
         C           -1.170087778135     0.773896028978    -0.000058638427    12.000000000000
         H           -1.617520594607     1.211233880120     0.890147369881     1.007825032230
         H           -1.617329935298     1.211543339062    -0.890207763946     1.007825032230
         C            0.356732246985     0.920125675927     0.000126465703    12.000000000000
         H            0.841131893184     1.891613470709     0.000339804886     1.007825032230
         O            0.761033604793     0.000226089980    -1.017884834425    15.994914619570
         C            0.356873021077    -0.920070814472    -0.000176067283    12.000000000000
         H            0.841421911515    -1.891484165894    -0.000279512817     1.007825032230
         O            0.760803469775    -0.000109180071     1.017926555010    15.994914619570

  Running in c1 symmetry.

  Rotational constants: A =      0.20028  B =      0.16407  C =      0.14758 [cm^-1]
  Rotational constants: A =   6004.35121  B =   4918.58983  C =   4424.29051 [MHz]
  Nuclear repulsion =  258.057158894741576

  Charge       = 0
  Multiplicity = 1
  Electrons    = 46
  Nalpha       = 23
  Nbeta        = 23

  ==> Algorithm <==

  SCF Algorithm Type is DF.
  DIIS enabled.
  MOM disabled.
  Fractional occupation disabled.
  Guess Type is SAD.
  Energy threshold   = 1.00e-10
  Density threshold  = 1.00e-10
  Integral threshold = 0.00e+00

  ==> Primary Basis <==

  Basis Set: PCSEG-0
    Blend: PCSEG-0
    Number of shells: 42
    Number of basis function: 66
    Number of Cartesian functions: 66
    Spherical Harmonics?: true
    Max angular momentum: 1

   => Loading Basis Set <=

    Name: (PCSEG-0 AUX)
    Role: JKFIT
    Keyword: DF_BASIS_SCF
    atoms 1, 4, 7, 10     entry C          line   198 file /opt/psi/4/master/share/psi4/basis/def2-universal-jkfit.gbs 
    atoms 2-3, 5-6, 8, 11 entry H          line    18 file /opt/psi/4/master/share/psi4/basis/def2-universal-jkfit.gbs 
    atoms 9, 12           entry O          line   318 file /opt/psi/4/master/share/psi4/basis/def2-universal-jkfit.gbs 

  ==> Integral Setup <==

  ==> DiskDFJK: Density-Fitted J/K Matrices <==

    J tasked:                  Yes
    K tasked:                  Yes
    wK tasked:                  No
    OpenMP threads:              4
    Integrals threads:           4
    Memory [MiB]:              375
    Algorithm:                Core
    Integral Cache:           NONE
    Schwarz Cutoff:          1E-12
    Fitting Condition:       1E-10

   => Auxiliary Basis Set <=

  Basis Set: (PCSEG-0 AUX)
    Blend: DEF2-UNIVERSAL-JKFIT
    Number of shells: 186
    Number of basis function: 562
    Number of Cartesian functions: 662
    Spherical Harmonics?: true
    Max angular momentum: 4

  Minimum eigenvalue in the overlap matrix is 1.2755658668E-03.
  Reciprocal condition number of the overlap matrix is 2.1000102129E-04.
    Using symmetric orthogonalization.

  ==> Pre-Iterations <==

  SCF Guess: Superposition of Atomic Densities via on-the-fly atomic UHF (no occupation information).

   -------------------------
    Irrep   Nso     Nmo    
   -------------------------
     A         66      66 
   -------------------------
    Total      66      66
   -------------------------

  ==> Iterations <==

                           Total Energy        Delta E     RMS |[F,P]|

   @DF-RHF iter SAD:  -303.78240052843921   -3.03782e+02   0.00000e+00 
   @DF-RHF iter   1:  -303.56521349005538    2.17187e-01   7.20795e-03 DIIS
   @DF-RHF iter   2:  -303.66408102901318   -9.88675e-02   3.86638e-03 DIIS
   @DF-RHF iter   3:  -303.68842479269489   -2.43438e-02   6.09655e-04 DIIS
   @DF-RHF iter   4:  -303.68956457991550   -1.13979e-03   1.89544e-04 DIIS
   @DF-RHF iter   5:  -303.68965288239895   -8.83025e-05   4.01190e-05 DIIS
   @DF-RHF iter   6:  -303.68965999887990   -7.11648e-06   8.09257e-06 DIIS
   @DF-RHF iter   7:  -303.68966037050558   -3.71626e-07   1.67498e-06 DIIS
   @DF-RHF iter   8:  -303.68966038364067   -1.31351e-08   5.24133e-07 DIIS
   @DF-RHF iter   9:  -303.68966038497933   -1.33866e-09   1.00105e-07 DIIS
   @DF-RHF iter  10:  -303.68966038504317   -6.38352e-11   1.73392e-08 DIIS
   @DF-RHF iter  11:  -303.68966038504493   -1.76215e-12   5.03569e-09 DIIS
   @DF-RHF iter  12:  -303.68966038504499   -5.68434e-14   2.15446e-09 DIIS
   @DF-RHF iter  13:  -303.68966038504482    1.70530e-13   2.10453e-10 DIIS
   @DF-RHF iter  14:  -303.68966038504493   -1.13687e-13   6.84597e-11 DIIS
  Energy and wave function converged.


  ==> Post-Iterations <==

    Orbital Energies [Eh]
    ---------------------

    Doubly Occupied:                                                      

       1A    -20.583854     2A    -20.583786     3A    -11.368403  
       4A    -11.368396     5A    -11.254889     6A    -11.254424  
       7A     -1.548742     8A     -1.317322     9A     -1.091202  
      10A     -1.011003    11A     -0.822121    12A     -0.787929  
      13A     -0.770552    14A     -0.684659    15A     -0.664447  
      16A     -0.661654    17A     -0.555066    18A     -0.534428  
      19A     -0.528172    20A     -0.525203    21A     -0.518204  
      22A     -0.467600    23A     -0.441374  

    Virtual:                                                              

      24A      0.203606    25A      0.232724    26A      0.236675  
      27A      0.242104    28A      0.254655    29A      0.267663  
      30A      0.315967    31A      0.351966    32A      0.354526  
      33A      0.388135    34A      0.408852    35A      0.474139  
      36A      0.575694    37A      0.796035    38A      0.799697  
      39A      0.821382    40A      0.924707    41A      0.933871  
      42A      0.944485    43A      0.951484    44A      1.004329  
      45A      1.005421    46A      1.033542    47A      1.061393  
      48A      1.071792    49A      1.136289    50A      1.149646  
      51A      1.171639    52A      1.172383    53A      1.210338  
      54A      1.238917    55A      1.422799    56A      1.454067  
      57A      1.484901    58A      1.525910    59A      1.692466  
      60A      1.710128    61A      1.929914    62A      1.952646  
      63A      2.144794    64A      2.303175    65A      2.379054  
      66A      2.449456  

    Final Occupation by Irrep:
              A 
    DOCC [    23 ]

  @DF-RHF Final Energy:  -303.68966038504493

   => Energetics <=

    Nuclear Repulsion Energy =            258.0571588947415762
    One-Electron Energy =                -924.8067747495772437
    Two-Electron Energy =                 363.0599554697906797
    Total Energy =                       -303.6896603850449310

Computation Completed

  //>>>>>>>>>>>>>>>>>>>>>>>>>>>>>>>>>>>//
  //                SCF                //
  //<<<<<<<<<<<<<<<<<<<<<<<<<<<<<<<<<<<//

   => Loading Basis Set <=

    Name: HEAVY-AUG-CC-PV(Q+D)Z
    Role: ORBITAL
    Keyword: BASIS
    atoms 1, 4, 7, 10     entry C          line   333 file /opt/psi/4/master/share/psi4/basis/heavy-aug-cc-pv_qpd_z.gbs 
    atoms 2-3, 5-6, 8, 11 entry H          line    86 file /opt/psi/4/master/share/psi4/basis/heavy-aug-cc-pv_qpd_z.gbs 
    atoms 9, 12           entry O          line   453 file /opt/psi/4/master/share/psi4/basis/heavy-aug-cc-pv_qpd_z.gbs 


         ---------------------------------------------------------
                                   SCF
               by Justin Turney, Rob Parrish, Andy Simmonett
                          and Daniel G. A. Smith
                              RHF Reference
                        4 Threads,    500 MiB Core
         ---------------------------------------------------------

  ==> Geometry <==

    Molecular point group: c1
    Full point group: C1

    Geometry (in Angstrom), charge = 0, multiplicity = 1:

       Center              X                  Y                   Z               Mass       
    ------------   -----------------  -----------------  -----------------  -----------------
         C           -1.169969463277    -0.774075714550    -0.000125580240    12.000000000000
         H           -1.617202611977    -1.211544387650    -0.890367767540     1.007825032230
         H           -1.617274396477    -1.211731322050     0.892489791180     1.007825032230
         C           -1.170087778135     0.773896028978    -0.000058638427    12.000000000000
         H           -1.617520594607     1.211233880120     0.890147369881     1.007825032230
         H           -1.617329935298     1.211543339062    -0.890207763946     1.007825032230
         C            0.356732246985     0.920125675927     0.000126465703    12.000000000000
         H            0.841131893184     1.891613470709     0.000339804886     1.007825032230
         O            0.761033604793     0.000226089980    -1.017884834425    15.994914619570
         C            0.356873021077    -0.920070814472    -0.000176067283    12.000000000000
         H            0.841421911515    -1.891484165894    -0.000279512817     1.007825032230
         O            0.760803469775    -0.000109180071     1.017926555010    15.994914619570

  Running in c1 symmetry.

  Rotational constants: A =      0.20028  B =      0.16407  C =      0.14758 [cm^-1]
  Rotational constants: A =   6004.35121  B =   4918.58983  C =   4424.29051 [MHz]
  Nuclear repulsion =  258.057158894741576

  Charge       = 0
  Multiplicity = 1
  Electrons    = 46
  Nalpha       = 23
  Nbeta        = 23

  ==> Algorithm <==

  SCF Algorithm Type is DF.
  DIIS enabled.
  MOM disabled.
  Fractional occupation disabled.
  Guess Type is SAD.
  Energy threshold   = 1.00e-10
  Density threshold  = 1.00e-10
  Integral threshold = 0.00e+00

  ==> Primary Basis <==

  Basis Set: HEAVY-AUG-CC-PV(Q+D)Z
    Blend: HEAVY-AUG-CC-PV(Q+D)Z
    Number of shells: 180
    Number of basis function: 660
    Number of Cartesian functions: 840
    Spherical Harmonics?: true
    Max angular momentum: 4

   => Loading Basis Set <=

    Name: (HEAVY-AUG-CC-PV(Q+D)Z AUX)
    Role: JKFIT
    Keyword: DF_BASIS_SCF
    atoms 1, 4, 7, 10     entry C          line   214 file /opt/psi/4/master/share/psi4/basis/heavy-aug-cc-pvqz-jkfit.gbs 
    atoms 2-3, 5-6, 8, 11 entry H          line   116 file /opt/psi/4/master/share/psi4/basis/heavy-aug-cc-pvqz-jkfit.gbs 
    atoms 9, 12           entry O          line   354 file /opt/psi/4/master/share/psi4/basis/heavy-aug-cc-pvqz-jkfit.gbs 


  Computing basis projection from PCSEG-0 to HEAVY-AUG-CC-PV(Q+D)Z

  ==> Integral Setup <==

  ==> DiskDFJK: Density-Fitted J/K Matrices <==

    J tasked:                  Yes
    K tasked:                  Yes
    wK tasked:                  No
    OpenMP threads:              4
    Integrals threads:           4
    Memory [MiB]:              375
    Algorithm:                Disk
    Integral Cache:           NONE
    Schwarz Cutoff:          1E-12
    Fitting Condition:       1E-10

   => Auxiliary Basis Set <=

  Basis Set: (HEAVY-AUG-CC-PV(Q+D)Z AUX)
    Blend: HEAVY-AUG-CC-PVQZ-JKFIT
    Number of shells: 282
    Number of basis function: 1158
    Number of Cartesian functions: 1584
    Spherical Harmonics?: true
    Max angular momentum: 5

  Minimum eigenvalue in the overlap matrix is 1.0730004470E-06.
  Reciprocal condition number of the overlap matrix is 6.8697419268E-08.
    Using symmetric orthogonalization.

  ==> Pre-Iterations <==

  SCF Guess: Orbitals guess was supplied from a previous computation.

   -------------------------
    Irrep   Nso     Nmo    
   -------------------------
     A        660     660 
   -------------------------
    Total     660     660
   -------------------------

  ==> Iterations <==

                           Total Energy        Delta E     RMS |[F,P]|

   @DF-RHF iter   0:  -304.22020535195497   -3.04220e+02   4.49016e-03 
   @DF-RHF iter   1:  -304.73494916155204   -5.14744e-01   3.39685e-04 DIIS
   @DF-RHF iter   2:  -304.75111081810934   -1.61617e-02   1.55070e-04 DIIS
   @DF-RHF iter   3:  -304.75503386267883   -3.92304e-03   2.79110e-05 DIIS
   @DF-RHF iter   4:  -304.75530739400426   -2.73531e-04   7.96182e-06 DIIS
   @DF-RHF iter   5:  -304.75532862408750   -2.12301e-05   3.36981e-06 DIIS
   @DF-RHF iter   6:  -304.75533188579595   -3.26171e-06   8.32222e-07 DIIS
   @DF-RHF iter   7:  -304.75533216917995   -2.83384e-07   1.75591e-07 DIIS
   @DF-RHF iter   8:  -304.75533218303337   -1.38534e-08   4.59956e-08 DIIS
   @DF-RHF iter   9:  -304.75533218407520   -1.04183e-09   1.49583e-08 DIIS
   @DF-RHF iter  10:  -304.75533218416433   -8.91305e-11   3.66491e-09 DIIS
   @DF-RHF iter  11:  -304.75533218417246   -8.12861e-12   9.21594e-10 DIIS
   @DF-RHF iter  12:  -304.75533218417178    6.82121e-13   2.68852e-10 DIIS
   @DF-RHF iter  13:  -304.75533218417274   -9.66338e-13   6.01414e-11 DIIS
  Energy and wave function converged.


  ==> Post-Iterations <==

    Orbital Energies [Eh]
    ---------------------

    Doubly Occupied:                                                      

       1A    -20.564307     2A    -20.564264     3A    -11.346896  
       4A    -11.346869     5A    -11.235296     6A    -11.234676  
       7A     -1.500713     8A     -1.296018     9A     -1.066612  
      10A     -0.989808    11A     -0.810316    12A     -0.787467  
      13A     -0.749030    14A     -0.676470    15A     -0.657268  
      16A     -0.645366    17A     -0.537658    18A     -0.525356  
      19A     -0.519372    20A     -0.511603    21A     -0.508637  
      22A     -0.460245    23A     -0.431577  

    Virtual:                                                              

      24A      0.041682    25A      0.042971    26A      0.050514  
      27A      0.062642    28A      0.063961    29A      0.079816  
      30A      0.080059    31A      0.083460    32A      0.101508  
      33A      0.110293    34A      0.111769    35A      0.112234  
      36A      0.139395    37A      0.151954    38A      0.166543  
      39A      0.171522    40A      0.178354    41A      0.178843  
      42A      0.188735    43A      0.188982    44A      0.199217  
      45A      0.207537    46A      0.226251    47A      0.227054  
      48A      0.230128    49A      0.258083    50A      0.261564  
      51A      0.270713    52A      0.271367    53A      0.272940  
      54A      0.287061    55A      0.288235    56A      0.291632  
      57A      0.301313    58A      0.316701    59A      0.319866  
      60A      0.325849    61A      0.333506    62A      0.338424  
      63A      0.356644    64A      0.358171    65A      0.370110  
      66A      0.381331    67A      0.388263    68A      0.390850  
      69A      0.391751    70A      0.392684    71A      0.399315  
      72A      0.399395    73A      0.413658    74A      0.420624  
      75A      0.421939    76A      0.440174    77A      0.452930  
      78A      0.457642    79A      0.465852    80A      0.495090  
      81A      0.517060    82A      0.518893    83A      0.523832  
      84A      0.528026    85A      0.550626    86A      0.572855  
      87A      0.575631    88A      0.586239    89A      0.590219  
      90A      0.598524    91A      0.600849    92A      0.614689  
      93A      0.629614    94A      0.642194    95A      0.656500  
      96A      0.659735    97A      0.686972    98A      0.690279  
      99A      0.697193   100A      0.704679   101A      0.716274  
     102A      0.721671   103A      0.735141   104A      0.744971  
     105A      0.759931   106A      0.766566   107A      0.790034  
     108A      0.791700   109A      0.794854   110A      0.796290  
     111A      0.828609   112A      0.832159   113A      0.833898  
     114A      0.850061   115A      0.860606   116A      0.876236  
     117A      0.885268   118A      0.898049   119A      0.920612  
     120A      0.939430   121A      0.948176   122A      0.960256  
     123A      0.960873   124A      0.987378   125A      1.002364  
     126A      1.010035   127A      1.012675   128A      1.017654  
     129A      1.034943   130A      1.035279   131A      1.047501  
     132A      1.060635   133A      1.071447   134A      1.074818  
     135A      1.097976   136A      1.114371   137A      1.129132  
     138A      1.140845   139A      1.154383   140A      1.160422  
     141A      1.160912   142A      1.166908   143A      1.167425  
     144A      1.177389   145A      1.190942   146A      1.198609  
     147A      1.209800   148A      1.222540   149A      1.230946  
     150A      1.235159   151A      1.238358   152A      1.240234  
     153A      1.246772   154A      1.276475   155A      1.278325  
     156A      1.289034   157A      1.289622   158A      1.306515  
     159A      1.315398   160A      1.329658   161A      1.371282  
     162A      1.373670   163A      1.410021   164A      1.410890  
     165A      1.436368   166A      1.442502   167A      1.459501  
     168A      1.469879   169A      1.477072   170A      1.487300  
     171A      1.490740   172A      1.509889   173A      1.525610  
     174A      1.534690   175A      1.544947   176A      1.594831  
     177A      1.595372   178A      1.620255   179A      1.622917  
     180A      1.626208   181A      1.626652   182A      1.646484  
     183A      1.684313   184A      1.686360   185A      1.701400  
     186A      1.724066   187A      1.727707   188A      1.734331  
     189A      1.754738   190A      1.777176   191A      1.779427  
     192A      1.814182   193A      1.867324   194A      1.875283  
     195A      1.887310   196A      1.898807   197A      1.909164  
     198A      1.928078   199A      1.960620   200A      1.968501  
     201A      1.998886   202A      2.000412   203A      2.017398  
     204A      2.022257   205A      2.026868   206A      2.029871  
     207A      2.035254   208A      2.039012   209A      2.045152  
     210A      2.106244   211A      2.115827   212A      2.126328  
     213A      2.142329   214A      2.146013   215A      2.173600  
     216A      2.189846   217A      2.189940   218A      2.212287  
     219A      2.255208   220A      2.261751   221A      2.270480  
     222A      2.296159   223A      2.301558   224A      2.309434  
     225A      2.339353   226A      2.342017   227A      2.362205  
     228A      2.364442   229A      2.366120   230A      2.377118  
     231A      2.391157   232A      2.400808   233A      2.407192  
     234A      2.423050   235A      2.442856   236A      2.448182  
     237A      2.460477   238A      2.487609   239A      2.492487  
     240A      2.518702   241A      2.527450   242A      2.536869  
     243A      2.547428   244A      2.561299   245A      2.590084  
     246A      2.594507   247A      2.622066   248A      2.634916  
     249A      2.635253   250A      2.648591   251A      2.666367  
     252A      2.683246   253A      2.701532   254A      2.719323  
     255A      2.734006   256A      2.735115   257A      2.753909  
     258A      2.766149   259A      2.766585   260A      2.802165  
     261A      2.807304   262A      2.807686   263A      2.835558  
     264A      2.861912   265A      2.870061   266A      2.923770  
     267A      2.941323   268A      2.945402   269A      2.970622  
     270A      2.977324   271A      2.988920   272A      2.992702  
     273A      3.009856   274A      3.033409   275A      3.043706  
     276A      3.051854   277A      3.078303   278A      3.083361  
     279A      3.083965   280A      3.106175   281A      3.111474  
     282A      3.137572   283A      3.148465   284A      3.156139  
     285A      3.174940   286A      3.189861   287A      3.228831  
     288A      3.249768   289A      3.259957   290A      3.270187  
     291A      3.291465   292A      3.297344   293A      3.322540  
     294A      3.364309   295A      3.368514   296A      3.400736  
     297A      3.403546   298A      3.406714   299A      3.434367  
     300A      3.456411   301A      3.464932   302A      3.480536  
     303A      3.503326   304A      3.523236   305A      3.537244  
     306A      3.553854   307A      3.574552   308A      3.599430  
     309A      3.613848   310A      3.619234   311A      3.641242  
     312A      3.664345   313A      3.693958   314A      3.706776  
     315A      3.715958   316A      3.748856   317A      3.754178  
     318A      3.757618   319A      3.809806   320A      3.836579  
     321A      3.846394   322A      3.847053   323A      3.876612  
     324A      3.908931   325A      3.910392   326A      3.921425  
     327A      3.951748   328A      3.964976   329A      3.984329  
     330A      4.042982   331A      4.048548   332A      4.050740  
     333A      4.063015   334A      4.085680   335A      4.100487  
     336A      4.121094   337A      4.139466   338A      4.157798  
     339A      4.172852   340A      4.203778   341A      4.205866  
     342A      4.219838   343A      4.243136   344A      4.249121  
     345A      4.276665   346A      4.296214   347A      4.316961  
     348A      4.336913   349A      4.340191   350A      4.364821  
     351A      4.408556   352A      4.435499   353A      4.446755  
     354A      4.457725   355A      4.469975   356A      4.490073  
     357A      4.500086   358A      4.513204   359A      4.525256  
     360A      4.542225   361A      4.570942   362A      4.598252  
     363A      4.637846   364A      4.662109   365A      4.676518  
     366A      4.698460   367A      4.699440   368A      4.707756  
     369A      4.719729   370A      4.747146   371A      4.758034  
     372A      4.763355   373A      4.788887   374A      4.830608  
     375A      4.835143   376A      4.835528   377A      4.848523  
     378A      4.860668   379A      4.913668   380A      4.944879  
     381A      4.988806   382A      5.007140   383A      5.010475  
     384A      5.035476   385A      5.061983   386A      5.124254  
     387A      5.172046   388A      5.175361   389A      5.185806  
     390A      5.245472   391A      5.255372   392A      5.257879  
     393A      5.285340   394A      5.295799   395A      5.311212  
     396A      5.347907   397A      5.367841   398A      5.391661  
     399A      5.423843   400A      5.503436   401A      5.525503  
     402A      5.555240   403A      5.596501   404A      5.637674  
     405A      5.660286   406A      5.661123   407A      5.677727  
     408A      5.794340   409A      5.837821   410A      5.838855  
     411A      5.844644   412A      5.909735   413A      5.976683  
     414A      6.039571   415A      6.107804   416A      6.148263  
     417A      6.191370   418A      6.220697   419A      6.234133  
     420A      6.242359   421A      6.296429   422A      6.339583  
     423A      6.344411   424A      6.348889   425A      6.372130  
     426A      6.399277   427A      6.422677   428A      6.463625  
     429A      6.490564   430A      6.496414   431A      6.513684  
     432A      6.525479   433A      6.539730   434A      6.582789  
     435A      6.586412   436A      6.618992   437A      6.642033  
     438A      6.647769   439A      6.655213   440A      6.689957  
     441A      6.701633   442A      6.705470   443A      6.717466  
     444A      6.754992   445A      6.774540   446A      6.786395  
     447A      6.815383   448A      6.819908   449A      6.856899  
     450A      6.896577   451A      6.909131   452A      6.919496  
     453A      6.923363   454A      6.924064   455A      6.947364  
     456A      6.979425   457A      6.995605   458A      7.014549  
     459A      7.040661   460A      7.094987   461A      7.107340  
     462A      7.110946   463A      7.138015   464A      7.159853  
     465A      7.180885   466A      7.193954   467A      7.207531  
     468A      7.223993   469A      7.224707   470A      7.254130  
     471A      7.280302   472A      7.312434   473A      7.360619  
     474A      7.369955   475A      7.370660   476A      7.420562  
     477A      7.439873   478A      7.442013   479A      7.477331  
     480A      7.541012   481A      7.545173   482A      7.601190  
     483A      7.604955   484A      7.618189   485A      7.642272  
     486A      7.721866   487A      7.732021   488A      7.751751  
     489A      7.756881   490A      7.784946   491A      7.818404  
     492A      7.840592   493A      7.847541   494A      7.860547  
     495A      7.923889   496A      7.951703   497A      7.953717  
     498A      7.989296   499A      7.998815   500A      8.022201  
     501A      8.026195   502A      8.049793   503A      8.094010  
     504A      8.117321   505A      8.153512   506A      8.157085  
     507A      8.197743   508A      8.207364   509A      8.328383  
     510A      8.336564   511A      8.342273   512A      8.355937  
     513A      8.388785   514A      8.421615   515A      8.426432  
     516A      8.484267   517A      8.508216   518A      8.510725  
     519A      8.530457   520A      8.554067   521A      8.568109  
     522A      8.594667   523A      8.611395   524A      8.616427  
     525A      8.655898   526A      8.696632   527A      8.711924  
     528A      8.720922   529A      8.765478   530A      8.816184  
     531A      8.830867   532A      8.840422   533A      8.843643  
     534A      8.847092   535A      8.891072   536A      8.900865  
     537A      8.929176   538A      8.942195   539A      8.958185  
     540A      9.010024   541A      9.017443   542A      9.029339  
     543A      9.038249   544A      9.048313   545A      9.067275  
     546A      9.085352   547A      9.109739   548A      9.118699  
     549A      9.172642   550A      9.180506   551A      9.190354  
     552A      9.235865   553A      9.251519   554A      9.313281  
     555A      9.345111   556A      9.350935   557A      9.356707  
     558A      9.367676   559A      9.399309   560A      9.453241  
     561A      9.503712   562A      9.515805   563A      9.527889  
     564A      9.556270   565A      9.650460   566A      9.660655  
     567A      9.726641   568A      9.760185   569A      9.774525  
     570A      9.798073   571A      9.834143   572A      9.897420  
     573A      9.923482   574A      9.932582   575A      9.960158  
     576A     10.070100   577A     10.114197   578A     10.231723  
     579A     10.242813   580A     10.254208   581A     10.292810  
     582A     10.417142   583A     10.477778   584A     10.500291  
     585A     10.515402   586A     10.589000   587A     10.625049  
     588A     10.648551   589A     10.782144   590A     10.788611  
     591A     10.818755   592A     10.823322   593A     10.965654  
     594A     11.002877   595A     11.059238   596A     11.083644  
     597A     11.097451   598A     11.106966   599A     11.146657  
     600A     11.149508   601A     11.177000   602A     11.220000  
     603A     11.235138   604A     11.258002   605A     11.351225  
     606A     11.387144   607A     11.456184   608A     11.462972  
     609A     11.512519   610A     11.513613   611A     11.526803  
     612A     11.557550   613A     11.635207   614A     11.656590  
     615A     11.744205   616A     11.829115   617A     11.848296  
     618A     11.884392   619A     11.908531   620A     11.927816  
     621A     12.220005   622A     12.278241   623A     12.317074  
     624A     12.399981   625A     12.664394   626A     12.677147  
     627A     12.821514   628A     12.908900   629A     12.949895  
     630A     13.057537   631A     13.096862   632A     13.114343  
     633A     13.194290   634A     13.230373   635A     13.262955  
     636A     13.357348   637A     13.389797   638A     13.400797  
     639A     13.424819   640A     13.532098   641A     13.535461  
     642A     13.555015   643A     13.741786   644A     13.750941  
     645A     13.819527   646A     13.820691   647A     13.867369  
     648A     13.931951   649A     14.007208   650A     14.018819  
     651A     14.164405   652A     14.172636   653A     14.730278  
     654A     14.927117   655A     27.317839   656A     27.905163  
     657A     28.044528   658A     28.597714   659A     44.849487  
     660A     45.764548  

    Final Occupation by Irrep:
              A 
    DOCC [    23 ]

  @DF-RHF Final Energy:  -304.75533218417274

   => Energetics <=

    Nuclear Repulsion Energy =            258.0571588947415762
    One-Electron Energy =                -927.6933316183346960
    Two-Electron Energy =                 364.8808405394203191
    Total Energy =                       -304.7553321841727438

Computation Completed


Properties will be evaluated at   0.000000,   0.000000,   0.000000 [a0]

Properties computed using the SCF density matrix

  Nuclear Dipole Moment: [e a0]
     X:    -4.4801      Y:    -0.0003      Z:     0.0020

  Electronic Dipole Moment: [e a0]
     X:     3.7447      Y:     0.0007      Z:    -0.0024

  Dipole Moment: [e a0]
     X:    -0.7354      Y:     0.0004      Z:    -0.0004     Total:     0.7354

  Dipole Moment: [D]
     X:    -1.8693      Y:     0.0010      Z:    -0.0010     Total:     1.8693


*** tstop() called on n054 at Fri Jun  5 11:39:43 2020
Module time:
	user time   =     136.68 seconds =       2.28 minutes
	system time =       6.31 seconds =       0.11 minutes
	total time  =         38 seconds =       0.63 minutes
Total time:
	user time   =     136.68 seconds =       2.28 minutes
	system time =       6.31 seconds =       0.11 minutes
	total time  =         38 seconds =       0.63 minutes

*** tstart() called on n054
*** at Fri Jun  5 11:39:43 2020


  //>>>>>>>>>>>>>>>>>>>>>>>>>>>>>>>>>>>//
  //               DFMP2               //
  //<<<<<<<<<<<<<<<<<<<<<<<<<<<<<<<<<<<//

   => Loading Basis Set <=

    Name: (HEAVY-AUG-CC-PV(Q+D)Z AUX)
    Role: RIFIT
    Keyword: DF_BASIS_MP2
    atoms 1, 4, 7, 10     entry C          line   180 file /opt/psi/4/master/share/psi4/basis/heavy-aug-cc-pvqz-ri.gbs 
    atoms 2-3, 5-6, 8, 11 entry H          line    44 file /opt/psi/4/master/share/psi4/basis/heavy-aug-cc-pvqz-ri.gbs 
    atoms 9, 12           entry O          line   328 file /opt/psi/4/master/share/psi4/basis/heavy-aug-cc-pvqz-ri.gbs 

	 --------------------------------------------------------
	                          DF-MP2                         
	      2nd-Order Density-Fitted Moller-Plesset Theory     
	              RMP2 Wavefunction,   4 Threads             
	                                                         
	        Rob Parrish, Justin Turney, Andy Simmonett,      
	           Ed Hohenstein, and C. David Sherrill          
	 --------------------------------------------------------

   => Auxiliary Basis Set <=

  Basis Set: (HEAVY-AUG-CC-PV(Q+D)Z AUX)
    Blend: HEAVY-AUG-CC-PVQZ-RI
    Number of shells: 306
    Number of basis function: 1338
    Number of Cartesian functions: 1842
    Spherical Harmonics?: true
    Max angular momentum: 5

	 --------------------------------------------------------
	                 NBF =   660, NAUX =  1338
	 --------------------------------------------------------
	   CLASS    FOCC     OCC    AOCC    AVIR     VIR    FVIR
	   PAIRS       6      23      17     637     637       0
	 --------------------------------------------------------

	-----------------------------------------------------------
	 ==================> DF-MP2 Energies <==================== 
	-----------------------------------------------------------
	 Reference Energy          =    -304.7553321841727438 [Eh]
	 Singles Energy            =      -0.0000000000000000 [Eh]
	 Same-Spin Energy          =      -0.2937721570701046 [Eh]
	 Opposite-Spin Energy      =      -0.9223963275210816 [Eh]
	 Correlation Energy        =      -1.2161684845911862 [Eh]
	 Total Energy              =    -305.9715006687639516 [Eh]
	-----------------------------------------------------------
	 ================> DF-SCS-MP2 Energies <================== 
	-----------------------------------------------------------
	 SCS Same-Spin Scale       =       0.3333333333333333 [-]
	 SCS Opposite-Spin Scale   =       1.2000000000000000 [-]
	 SCS Same-Spin Energy      =      -0.0979240523567015 [Eh]
	 SCS Opposite-Spin Energy  =      -1.1068755930252978 [Eh]
	 SCS Correlation Energy    =      -1.2047996453819994 [Eh]
	 SCS Total Energy          =    -305.9601318295547685 [Eh]
	-----------------------------------------------------------


*** tstop() called on n054 at Fri Jun  5 11:39:50 2020
Module time:
	user time   =      28.39 seconds =       0.47 minutes
	system time =       0.40 seconds =       0.01 minutes
	total time  =          7 seconds =       0.12 minutes
Total time:
	user time   =     165.07 seconds =       2.75 minutes
	system time =       6.71 seconds =       0.11 minutes
	total time  =         45 seconds =       0.75 minutes

========================OPTAVC-XTPL==========================

MP2/QZ correlation energy -1.2161684845911862
SCF/QZ reference energy -304.75533218417274


=============================================================

Scratch directory: /tmp/

Scratch directory: /tmp/
    SCF Algorithm Type (re)set to DF.

*** tstart() called on n054
*** at Fri Jun  5 11:39:51 2020


  //>>>>>>>>>>>>>>>>>>>>>>>>>>>>>>>>>>>//
  //      Guess SCF, pcseg-0 Basis     //
  //<<<<<<<<<<<<<<<<<<<<<<<<<<<<<<<<<<<//

   => Loading Basis Set <=

    Name: PCSEG-0
    Role: ORBITAL
    Keyword: BASIS
    atoms 1, 4, 7, 10     entry C          line    71 file /opt/psi/4/master/share/psi4/basis/pcseg-0.gbs 
    atoms 2-3, 5-6, 8, 11 entry H          line    13 file /opt/psi/4/master/share/psi4/basis/pcseg-0.gbs 
    atoms 9, 12           entry O          line   103 file /opt/psi/4/master/share/psi4/basis/pcseg-0.gbs 


         ---------------------------------------------------------
                           SCF Castup computation                  
         ---------------------------------------------------------
                                   SCF
               by Justin Turney, Rob Parrish, Andy Simmonett
                          and Daniel G. A. Smith
                              RHF Reference
                        4 Threads,    500 MiB Core
         ---------------------------------------------------------

  ==> Geometry <==

    Molecular point group: c1
    Full point group: C1

    Geometry (in Angstrom), charge = 0, multiplicity = 1:

       Center              X                  Y                   Z               Mass       
    ------------   -----------------  -----------------  -----------------  -----------------
         C           -1.169969463277    -0.774075714550    -0.000125580240    12.000000000000
         H           -1.617202611977    -1.211544387650    -0.890367767540     1.007825032230
         H           -1.617274396477    -1.211731322050     0.892489791180     1.007825032230
         C           -1.170087778135     0.773896028978    -0.000058638427    12.000000000000
         H           -1.617520594607     1.211233880120     0.890147369881     1.007825032230
         H           -1.617329935298     1.211543339062    -0.890207763946     1.007825032230
         C            0.356732246985     0.920125675927     0.000126465703    12.000000000000
         H            0.841131893184     1.891613470709     0.000339804886     1.007825032230
         O            0.761033604793     0.000226089980    -1.017884834425    15.994914619570
         C            0.356873021077    -0.920070814472    -0.000176067283    12.000000000000
         H            0.841421911515    -1.891484165894    -0.000279512817     1.007825032230
         O            0.760803469775    -0.000109180071     1.017926555010    15.994914619570

  Running in c1 symmetry.

  Rotational constants: A =      0.20028  B =      0.16407  C =      0.14758 [cm^-1]
  Rotational constants: A =   6004.35121  B =   4918.58983  C =   4424.29051 [MHz]
  Nuclear repulsion =  258.057158894741576

  Charge       = 0
  Multiplicity = 1
  Electrons    = 46
  Nalpha       = 23
  Nbeta        = 23

  ==> Algorithm <==

  SCF Algorithm Type is DF.
  DIIS enabled.
  MOM disabled.
  Fractional occupation disabled.
  Guess Type is SAD.
  Energy threshold   = 1.00e-10
  Density threshold  = 1.00e-10
  Integral threshold = 0.00e+00

  ==> Primary Basis <==

  Basis Set: PCSEG-0
    Blend: PCSEG-0
    Number of shells: 42
    Number of basis function: 66
    Number of Cartesian functions: 66
    Spherical Harmonics?: true
    Max angular momentum: 1

   => Loading Basis Set <=

    Name: (PCSEG-0 AUX)
    Role: JKFIT
    Keyword: DF_BASIS_SCF
    atoms 1, 4, 7, 10     entry C          line   198 file /opt/psi/4/master/share/psi4/basis/def2-universal-jkfit.gbs 
    atoms 2-3, 5-6, 8, 11 entry H          line    18 file /opt/psi/4/master/share/psi4/basis/def2-universal-jkfit.gbs 
    atoms 9, 12           entry O          line   318 file /opt/psi/4/master/share/psi4/basis/def2-universal-jkfit.gbs 

  ==> Integral Setup <==

  ==> DiskDFJK: Density-Fitted J/K Matrices <==

    J tasked:                  Yes
    K tasked:                  Yes
    wK tasked:                  No
    OpenMP threads:              4
    Integrals threads:           4
    Memory [MiB]:              375
    Algorithm:                Core
    Integral Cache:           NONE
    Schwarz Cutoff:          1E-12
    Fitting Condition:       1E-10

   => Auxiliary Basis Set <=

  Basis Set: (PCSEG-0 AUX)
    Blend: DEF2-UNIVERSAL-JKFIT
    Number of shells: 186
    Number of basis function: 562
    Number of Cartesian functions: 662
    Spherical Harmonics?: true
    Max angular momentum: 4

  Minimum eigenvalue in the overlap matrix is 1.2755658668E-03.
  Reciprocal condition number of the overlap matrix is 2.1000102129E-04.
    Using symmetric orthogonalization.

  ==> Pre-Iterations <==

  SCF Guess: Superposition of Atomic Densities via on-the-fly atomic UHF (no occupation information).

   -------------------------
    Irrep   Nso     Nmo    
   -------------------------
     A         66      66 
   -------------------------
    Total      66      66
   -------------------------

  ==> Iterations <==

                           Total Energy        Delta E     RMS |[F,P]|

   @DF-RHF iter SAD:  -303.78240052865203   -3.03782e+02   0.00000e+00 
   @DF-RHF iter   1:  -303.56521349027412    2.17187e-01   7.20795e-03 DIIS
   @DF-RHF iter   2:  -303.66408102923481   -9.88675e-02   3.86638e-03 DIIS
   @DF-RHF iter   3:  -303.68842479291766   -2.43438e-02   6.09655e-04 DIIS
   @DF-RHF iter   4:  -303.68956458013844   -1.13979e-03   1.89544e-04 DIIS
   @DF-RHF iter   5:  -303.68965288262234   -8.83025e-05   4.01190e-05 DIIS
   @DF-RHF iter   6:  -303.68965999910290   -7.11648e-06   8.09257e-06 DIIS
   @DF-RHF iter   7:  -303.68966037072880   -3.71626e-07   1.67498e-06 DIIS
   @DF-RHF iter   8:  -303.68966038386350   -1.31347e-08   5.24133e-07 DIIS
   @DF-RHF iter   9:  -303.68966038520279   -1.33929e-09   1.00105e-07 DIIS
   @DF-RHF iter  10:  -303.68966038526600   -6.32099e-11   1.73392e-08 DIIS
   @DF-RHF iter  11:  -303.68966038526787   -1.87583e-12   5.03569e-09 DIIS
   @DF-RHF iter  12:  -303.68966038526781    5.68434e-14   2.15446e-09 DIIS
   @DF-RHF iter  13:  -303.68966038526787   -5.68434e-14   2.10453e-10 DIIS
   @DF-RHF iter  14:  -303.68966038526770    1.70530e-13   6.84595e-11 DIIS
  Energy and wave function converged.


  ==> Post-Iterations <==

    Orbital Energies [Eh]
    ---------------------

    Doubly Occupied:                                                      

       1A    -20.583854     2A    -20.583786     3A    -11.368403  
       4A    -11.368396     5A    -11.254889     6A    -11.254424  
       7A     -1.548742     8A     -1.317322     9A     -1.091202  
      10A     -1.011003    11A     -0.822121    12A     -0.787929  
      13A     -0.770552    14A     -0.684659    15A     -0.664447  
      16A     -0.661654    17A     -0.555066    18A     -0.534428  
      19A     -0.528172    20A     -0.525203    21A     -0.518204  
      22A     -0.467600    23A     -0.441374  

    Virtual:                                                              

      24A      0.203606    25A      0.232724    26A      0.236675  
      27A      0.242104    28A      0.254655    29A      0.267663  
      30A      0.315967    31A      0.351966    32A      0.354526  
      33A      0.388135    34A      0.408852    35A      0.474139  
      36A      0.575694    37A      0.796035    38A      0.799697  
      39A      0.821382    40A      0.924707    41A      0.933871  
      42A      0.944485    43A      0.951484    44A      1.004329  
      45A      1.005421    46A      1.033542    47A      1.061393  
      48A      1.071792    49A      1.136289    50A      1.149646  
      51A      1.171639    52A      1.172383    53A      1.210338  
      54A      1.238917    55A      1.422799    56A      1.454067  
      57A      1.484901    58A      1.525910    59A      1.692466  
      60A      1.710128    61A      1.929914    62A      1.952646  
      63A      2.144794    64A      2.303175    65A      2.379054  
      66A      2.449456  

    Final Occupation by Irrep:
              A 
    DOCC [    23 ]

  @DF-RHF Final Energy:  -303.68966038526770

   => Energetics <=

    Nuclear Repulsion Energy =            258.0571588947415762
    One-Electron Energy =                -924.8067747497615301
    Two-Electron Energy =                 363.0599554697523104
    Total Energy =                       -303.6896603852677003

Computation Completed

  //>>>>>>>>>>>>>>>>>>>>>>>>>>>>>>>>>>>//
  //                SCF                //
  //<<<<<<<<<<<<<<<<<<<<<<<<<<<<<<<<<<<//

   => Loading Basis Set <=

    Name: HEAVY-AUG-CC-PV(T+D)Z
    Role: ORBITAL
    Keyword: BASIS
    atoms 1, 4, 7, 10     entry C          line   273 file /opt/psi/4/master/share/psi4/basis/heavy-aug-cc-pv_tpd_z.gbs 
    atoms 2-3, 5-6, 8, 11 entry H          line    86 file /opt/psi/4/master/share/psi4/basis/heavy-aug-cc-pv_tpd_z.gbs 
    atoms 9, 12           entry O          line   365 file /opt/psi/4/master/share/psi4/basis/heavy-aug-cc-pv_tpd_z.gbs 


         ---------------------------------------------------------
                                   SCF
               by Justin Turney, Rob Parrish, Andy Simmonett
                          and Daniel G. A. Smith
                              RHF Reference
                        4 Threads,    500 MiB Core
         ---------------------------------------------------------

  ==> Geometry <==

    Molecular point group: c1
    Full point group: C1

    Geometry (in Angstrom), charge = 0, multiplicity = 1:

       Center              X                  Y                   Z               Mass       
    ------------   -----------------  -----------------  -----------------  -----------------
         C           -1.169969463277    -0.774075714550    -0.000125580240    12.000000000000
         H           -1.617202611977    -1.211544387650    -0.890367767540     1.007825032230
         H           -1.617274396477    -1.211731322050     0.892489791180     1.007825032230
         C           -1.170087778135     0.773896028978    -0.000058638427    12.000000000000
         H           -1.617520594607     1.211233880120     0.890147369881     1.007825032230
         H           -1.617329935298     1.211543339062    -0.890207763946     1.007825032230
         C            0.356732246985     0.920125675927     0.000126465703    12.000000000000
         H            0.841131893184     1.891613470709     0.000339804886     1.007825032230
         O            0.761033604793     0.000226089980    -1.017884834425    15.994914619570
         C            0.356873021077    -0.920070814472    -0.000176067283    12.000000000000
         H            0.841421911515    -1.891484165894    -0.000279512817     1.007825032230
         O            0.760803469775    -0.000109180071     1.017926555010    15.994914619570

  Running in c1 symmetry.

  Rotational constants: A =      0.20028  B =      0.16407  C =      0.14758 [cm^-1]
  Rotational constants: A =   6004.35121  B =   4918.58983  C =   4424.29051 [MHz]
  Nuclear repulsion =  258.057158894741576

  Charge       = 0
  Multiplicity = 1
  Electrons    = 46
  Nalpha       = 23
  Nbeta        = 23

  ==> Algorithm <==

  SCF Algorithm Type is DF.
  DIIS enabled.
  MOM disabled.
  Fractional occupation disabled.
  Guess Type is SAD.
  Energy threshold   = 1.00e-10
  Density threshold  = 1.00e-10
  Integral threshold = 0.00e+00

  ==> Primary Basis <==

  Basis Set: HEAVY-AUG-CC-PV(T+D)Z
    Blend: HEAVY-AUG-CC-PV(T+D)Z
    Number of shells: 120
    Number of basis function: 360
    Number of Cartesian functions: 420
    Spherical Harmonics?: true
    Max angular momentum: 3

   => Loading Basis Set <=

    Name: (HEAVY-AUG-CC-PV(T+D)Z AUX)
    Role: JKFIT
    Keyword: DF_BASIS_SCF
    atoms 1, 4, 7, 10     entry C          line   200 file /opt/psi/4/master/share/psi4/basis/heavy-aug-cc-pvtz-jkfit.gbs 
    atoms 2-3, 5-6, 8, 11 entry H          line   116 file /opt/psi/4/master/share/psi4/basis/heavy-aug-cc-pvtz-jkfit.gbs 
    atoms 9, 12           entry O          line   324 file /opt/psi/4/master/share/psi4/basis/heavy-aug-cc-pvtz-jkfit.gbs 


  Computing basis projection from PCSEG-0 to HEAVY-AUG-CC-PV(T+D)Z

  ==> Integral Setup <==

  ==> DiskDFJK: Density-Fitted J/K Matrices <==

    J tasked:                  Yes
    K tasked:                  Yes
    wK tasked:                  No
    OpenMP threads:              4
    Integrals threads:           4
    Memory [MiB]:              375
    Algorithm:                Disk
    Integral Cache:           NONE
    Schwarz Cutoff:          1E-12
    Fitting Condition:       1E-10

   => Auxiliary Basis Set <=

  Basis Set: (HEAVY-AUG-CC-PV(T+D)Z AUX)
    Blend: HEAVY-AUG-CC-PVTZ-JKFIT
    Number of shells: 240
    Number of basis function: 804
    Number of Cartesian functions: 996
    Spherical Harmonics?: true
    Max angular momentum: 4

  Minimum eigenvalue in the overlap matrix is 5.4604174406E-06.
  Reciprocal condition number of the overlap matrix is 3.9849842825E-07.
    Using symmetric orthogonalization.

  ==> Pre-Iterations <==

  SCF Guess: Orbitals guess was supplied from a previous computation.

   -------------------------
    Irrep   Nso     Nmo    
   -------------------------
     A        360     360 
   -------------------------
    Total     360     360
   -------------------------

  ==> Iterations <==

                           Total Energy        Delta E     RMS |[F,P]|

   @DF-RHF iter   0:  -304.36011026962342   -3.04360e+02   4.19503e-03 
   @DF-RHF iter   1:  -304.71753935120023   -3.57429e-01   5.78143e-04 DIIS
   @DF-RHF iter   2:  -304.73283123208205   -1.52919e-02   2.73925e-04 DIIS
   @DF-RHF iter   3:  -304.73656391467756   -3.73268e-03   4.82343e-05 DIIS
   @DF-RHF iter   4:  -304.73682420712407   -2.60292e-04   1.47445e-05 DIIS
   @DF-RHF iter   5:  -304.73684392552070   -1.97184e-05   6.03203e-06 DIIS
   @DF-RHF iter   6:  -304.73684736278608   -3.43727e-06   1.40537e-06 DIIS
   @DF-RHF iter   7:  -304.73684760798994   -2.45204e-07   3.05468e-07 DIIS
   @DF-RHF iter   8:  -304.73684762105086   -1.30609e-08   8.06939e-08 DIIS
   @DF-RHF iter   9:  -304.73684762195785   -9.06994e-10   2.57058e-08 DIIS
   @DF-RHF iter  10:  -304.73684762204368   -8.58336e-11   6.20146e-09 DIIS
   @DF-RHF iter  11:  -304.73684762204971   -6.02540e-12   1.58663e-09 DIIS
   @DF-RHF iter  12:  -304.73684762205028   -5.68434e-13   4.57822e-10 DIIS
   @DF-RHF iter  13:  -304.73684762205011    1.70530e-13   1.03613e-10 DIIS
   @DF-RHF iter  14:  -304.73684762205022   -1.13687e-13   5.21826e-11 DIIS
  Energy and wave function converged.


  ==> Post-Iterations <==

    Orbital Energies [Eh]
    ---------------------

    Doubly Occupied:                                                      

       1A    -20.567264     2A    -20.567221     3A    -11.348006  
       4A    -11.347981     5A    -11.236373     6A    -11.235756  
       7A     -1.501528     8A     -1.296819     9A     -1.066858  
      10A     -0.990093    11A     -0.810410    12A     -0.787622  
      13A     -0.748989    14A     -0.676369    15A     -0.657293  
      16A     -0.645218    17A     -0.537587    18A     -0.525203  
      19A     -0.519240    20A     -0.511526    21A     -0.508437  
      22A     -0.459981    23A     -0.431376  

    Virtual:                                                              

      24A      0.050449    25A      0.051312    26A      0.059467  
      27A      0.072115    28A      0.073462    29A      0.092419  
      30A      0.093432    31A      0.096766    32A      0.116621  
      33A      0.126407    34A      0.127464    35A      0.130112  
      36A      0.162131    37A      0.176391    38A      0.195533  
      39A      0.204210    40A      0.206628    41A      0.214120  
      42A      0.220945    43A      0.228189    44A      0.233687  
      45A      0.249462    46A      0.268185    47A      0.268846  
      48A      0.276976    49A      0.295918    50A      0.302210  
      51A      0.315520    52A      0.332134    53A      0.336019  
      54A      0.342740    55A      0.348382    56A      0.357013  
      57A      0.357142    58A      0.362768    59A      0.376026  
      60A      0.398576    61A      0.404029    62A      0.412778  
      63A      0.421484    64A      0.433702    65A      0.447048  
      66A      0.459405    67A      0.469160    68A      0.486601  
      69A      0.493127    70A      0.508589    71A      0.512557  
      72A      0.516709    73A      0.520760    74A      0.527738  
      75A      0.529240    76A      0.543498    77A      0.546057  
      78A      0.580523    79A      0.595825    80A      0.608051  
      81A      0.612116    82A      0.624823    83A      0.654771  
      84A      0.657267    85A      0.672063    86A      0.722523  
      87A      0.737304    88A      0.748572    89A      0.754215  
      90A      0.771634    91A      0.781487    92A      0.793673  
      93A      0.798288    94A      0.817405    95A      0.820029  
      96A      0.830056    97A      0.843481    98A      0.878391  
      99A      0.892181   100A      0.930747   101A      0.930810  
     102A      0.940273   103A      0.946362   104A      0.969905  
     105A      0.988461   106A      1.000156   107A      1.031658  
     108A      1.037730   109A      1.039122   110A      1.061906  
     111A      1.080468   112A      1.096477   113A      1.115827  
     114A      1.123200   115A      1.138994   116A      1.161570  
     117A      1.189198   118A      1.225222   119A      1.248974  
     120A      1.252441   121A      1.262787   122A      1.283168  
     123A      1.322890   124A      1.330796   125A      1.339054  
     126A      1.353480   127A      1.374945   128A      1.382805  
     129A      1.398414   130A      1.404020   131A      1.412698  
     132A      1.448179   133A      1.448484   134A      1.460266  
     135A      1.482046   136A      1.497827   137A      1.506656  
     138A      1.527388   139A      1.547113   140A      1.559841  
     141A      1.583199   142A      1.586033   143A      1.588578  
     144A      1.589812   145A      1.601626   146A      1.656202  
     147A      1.660634   148A      1.670555   149A      1.676397  
     150A      1.684834   151A      1.699884   152A      1.707977  
     153A      1.715596   154A      1.732071   155A      1.736497  
     156A      1.749844   157A      1.752710   158A      1.791694  
     159A      1.802643   160A      1.808551   161A      1.823933  
     162A      1.903750   163A      1.905448   164A      1.931499  
     165A      1.945196   166A      1.948931   167A      1.985474  
     168A      1.993598   169A      2.003701   170A      2.007490  
     171A      2.028283   172A      2.051112   173A      2.054974  
     174A      2.060975   175A      2.150852   176A      2.153360  
     177A      2.214054   178A      2.251709   179A      2.301662  
     180A      2.334239   181A      2.393181   182A      2.403023  
     183A      2.424076   184A      2.441748   185A      2.452513  
     186A      2.480753   187A      2.508264   188A      2.511725  
     189A      2.545252   190A      2.582274   191A      2.632002  
     192A      2.647239   193A      2.682494   194A      2.693376  
     195A      2.725303   196A      2.771145   197A      2.799336  
     198A      2.882352   199A      2.882969   200A      2.895388  
     201A      2.914658   202A      2.920829   203A      2.958393  
     204A      2.966069   205A      2.969517   206A      3.081836  
     207A      3.099899   208A      3.119342   209A      3.132126  
     210A      3.185568   211A      3.189204   212A      3.212593  
     213A      3.227474   214A      3.243689   215A      3.267103  
     216A      3.311877   217A      3.339282   218A      3.412550  
     219A      3.415983   220A      3.417877   221A      3.440056  
     222A      3.442804   223A      3.480700   224A      3.486503  
     225A      3.503960   226A      3.524249   227A      3.539126  
     228A      3.606642   229A      3.629334   230A      3.639809  
     231A      3.671112   232A      3.686123   233A      3.700557  
     234A      3.710867   235A      3.729849   236A      3.735993  
     237A      3.751913   238A      3.821235   239A      3.837126  
     240A      3.844369   241A      3.867716   242A      3.885435  
     243A      3.933487   244A      3.949564   245A      3.965955  
     246A      3.966398   247A      3.969751   248A      4.005144  
     249A      4.025133   250A      4.049735   251A      4.056342  
     252A      4.080133   253A      4.107566   254A      4.114229  
     255A      4.148429   256A      4.167830   257A      4.176353  
     258A      4.185292   259A      4.191659   260A      4.214276  
     261A      4.244643   262A      4.252820   263A      4.259416  
     264A      4.268469   265A      4.273675   266A      4.317601  
     267A      4.345736   268A      4.366820   269A      4.429643  
     270A      4.466786   271A      4.484154   272A      4.486019  
     273A      4.499481   274A      4.515668   275A      4.532135  
     276A      4.554300   277A      4.583962   278A      4.639286  
     279A      4.690878   280A      4.693321   281A      4.703394  
     282A      4.708395   283A      4.734552   284A      4.744167  
     285A      4.758252   286A      4.808792   287A      4.820380  
     288A      4.821166   289A      4.840299   290A      4.888522  
     291A      4.906985   292A      4.958352   293A      4.966091  
     294A      4.968020   295A      5.095833   296A      5.119520  
     297A      5.125197   298A      5.193555   299A      5.199258  
     300A      5.240726   301A      5.272824   302A      5.288678  
     303A      5.398182   304A      5.424282   305A      5.437018  
     306A      5.465152   307A      5.476001   308A      5.583470  
     309A      5.584340   310A      5.605708   311A      5.653804  
     312A      5.702840   313A      5.710232   314A      5.730091  
     315A      5.859013   316A      5.866108   317A      5.900297  
     318A      5.937517   319A      6.060748   320A      6.130371  
     321A      6.153151   322A      6.205744   323A      6.261876  
     324A      6.288576   325A      6.301536   326A      6.361056  
     327A      6.385686   328A      6.497474   329A      6.562736  
     330A      6.901313   331A      6.905933   332A      6.955131  
     333A      6.970922   334A      6.997694   335A      7.032897  
     336A      7.111225   337A      7.141286   338A      7.179602  
     339A      7.206708   340A      7.245524   341A      7.254673  
     342A      7.404384   343A      7.507562   344A      7.599700  
     345A      7.615094   346A      7.659947   347A      7.755680  
     348A      7.811103   349A      7.825113   350A      7.924426  
     351A      8.059675   352A      8.210637   353A      8.213535  
     354A      8.233695   355A     14.278429   356A     15.466596  
     357A     15.712357   358A     15.953494   359A     17.525723  
     360A     18.819795  

    Final Occupation by Irrep:
              A 
    DOCC [    23 ]

  @DF-RHF Final Energy:  -304.73684762205022

   => Energetics <=

    Nuclear Repulsion Energy =            258.0571588947415762
    One-Electron Energy =                -927.6337131116395085
    Two-Electron Energy =                 364.8397065948476552
    Total Energy =                       -304.7368476220502203

Computation Completed


Properties will be evaluated at   0.000000,   0.000000,   0.000000 [a0]

Properties computed using the SCF density matrix

  Nuclear Dipole Moment: [e a0]
     X:    -4.4801      Y:    -0.0003      Z:     0.0020

  Electronic Dipole Moment: [e a0]
     X:     3.7443      Y:     0.0007      Z:    -0.0024

  Dipole Moment: [e a0]
     X:    -0.7358      Y:     0.0004      Z:    -0.0004     Total:     0.7358

  Dipole Moment: [D]
     X:    -1.8703      Y:     0.0010      Z:    -0.0010     Total:     1.8703


*** tstop() called on n054 at Fri Jun  5 11:40:01 2020
Module time:
	user time   =      35.43 seconds =       0.59 minutes
	system time =       1.77 seconds =       0.03 minutes
	total time  =         10 seconds =       0.17 minutes
Total time:
	user time   =     200.94 seconds =       3.35 minutes
	system time =       8.67 seconds =       0.14 minutes
	total time  =         56 seconds =       0.93 minutes

*** tstart() called on n054
*** at Fri Jun  5 11:40:01 2020


  //>>>>>>>>>>>>>>>>>>>>>>>>>>>>>>>>>>>//
  //               DFMP2               //
  //<<<<<<<<<<<<<<<<<<<<<<<<<<<<<<<<<<<//

   => Loading Basis Set <=

    Name: (HEAVY-AUG-CC-PV(T+D)Z AUX)
    Role: RIFIT
    Keyword: DF_BASIS_MP2
    atoms 1, 4, 7, 10     entry C          line   148 file /opt/psi/4/master/share/psi4/basis/heavy-aug-cc-pvtz-ri.gbs 
    atoms 2-3, 5-6, 8, 11 entry H          line    44 file /opt/psi/4/master/share/psi4/basis/heavy-aug-cc-pvtz-ri.gbs 
    atoms 9, 12           entry O          line   264 file /opt/psi/4/master/share/psi4/basis/heavy-aug-cc-pvtz-ri.gbs 

	 --------------------------------------------------------
	                          DF-MP2                         
	      2nd-Order Density-Fitted Moller-Plesset Theory     
	              RMP2 Wavefunction,   4 Threads             
	                                                         
	        Rob Parrish, Justin Turney, Andy Simmonett,      
	           Ed Hohenstein, and C. David Sherrill          
	 --------------------------------------------------------

   => Auxiliary Basis Set <=

  Basis Set: (HEAVY-AUG-CC-PV(T+D)Z AUX)
    Blend: HEAVY-AUG-CC-PVTZ-RI
    Number of shells: 228
    Number of basis function: 816
    Number of Cartesian functions: 1026
    Spherical Harmonics?: true
    Max angular momentum: 4

	 --------------------------------------------------------
	                 NBF =   360, NAUX =   816
	 --------------------------------------------------------
	   CLASS    FOCC     OCC    AOCC    AVIR     VIR    FVIR
	   PAIRS       6      23      17     337     337       0
	 --------------------------------------------------------

	-----------------------------------------------------------
	 ==================> DF-MP2 Energies <==================== 
	-----------------------------------------------------------
	 Reference Energy          =    -304.7368476220502203 [Eh]
	 Singles Energy            =      -0.0000000000000000 [Eh]
	 Same-Spin Energy          =      -0.2850965870876171 [Eh]
	 Opposite-Spin Energy      =      -0.8617848957921095 [Eh]
	 Correlation Energy        =      -1.1468814828797267 [Eh]
	 Total Energy              =    -305.8837291049299552 [Eh]
	-----------------------------------------------------------
	 ================> DF-SCS-MP2 Energies <================== 
	-----------------------------------------------------------
	 SCS Same-Spin Scale       =       0.3333333333333333 [-]
	 SCS Opposite-Spin Scale   =       1.2000000000000000 [-]
	 SCS Same-Spin Energy      =      -0.0950321956958724 [Eh]
	 SCS Opposite-Spin Energy  =      -1.0341418749505313 [Eh]
	 SCS Correlation Energy    =      -1.1291740706464037 [Eh]
	 SCS Total Energy          =    -305.8660216926966200 [Eh]
	-----------------------------------------------------------


*** tstop() called on n054 at Fri Jun  5 11:40:03 2020
Module time:
	user time   =       6.75 seconds =       0.11 minutes
	system time =       0.11 seconds =       0.00 minutes
	total time  =          2 seconds =       0.03 minutes
Total time:
	user time   =     207.69 seconds =       3.46 minutes
	system time =       8.78 seconds =       0.15 minutes
	total time  =         58 seconds =       0.97 minutes

========================OPTAVC-XTPL==========================

MP2/TZ correlation energy -1.1468814828797267

=============================================================

    Psi4 stopped on: Friday, 05 June 2020 11:40AM
    Psi4 wall time for execution: 0:00:57.67

*** Psi4 exiting successfully. Buy a developer a beer!
