
 Primary working directories    : /tmp/320938.335.gen6.q
 Secondary working directories  : /tmp/320938.335.gen6.q
 Wavefunction directory         : /home/vulcan/mel64643/wfu/
 Main file repository           : /tmp/320938.335.gen6.q/

 ARCHNAME  : Linux/x86_64
 FC        : /opt/intel/compilers_and_libraries_2016.1.150/linux/bin/intel64/ifort
 FCVERSION : 16.0.1
 BLASLIB   : -mkl
 id        : ccgc

 Nodes     nprocs
 n078         3
 Number of processes for MPI-2 version of Molpro:   nprocs(total)=    4   nprocs(compute)=    3   nprocs(helper)=    1
 ga_uses_ma=false, calling ma_init with nominal heap.
 GA-space will be limited to   8.0 MW (determined by -G option)

 Using customized tuning parameters: mindgm=10; mindgv=16; mindgc=4; mindgr=1; noblas=0; mincuda=1000; minvec=7
 default implementation of scratch files=sf  

 ***,Frequencies for min3
 memory,1000,m
 gthresh,energy=1.0d-10,orbital=1.0d-10,oneint=1.0d-16,twoint=1.0d-16,optgrad=1.0d-6,compress=1.0d-13
 geomtyp=xyz
 
  geometry = {
  12
  arbitrary comment
     C    1.776964391707    0.711398808326   -0.047331391796
     C    0.491811976407   -0.059992870174   -0.196493901896
     C    0.450332819107   -1.536294019674    0.101417522804
     O   -0.560767745493    0.727725457083    0.254500975190
     O   -1.837833440555    0.091971993376   -0.120547266187
     H    2.585384351352    0.210994691240   -0.611459063117
     H    1.662608591851    1.742807548476   -0.426334041108
     H    2.094345920196    0.773820631053    1.017641565125
     H   -0.505099765734   -1.983410549936   -0.220340143542
     H    1.281663295570   -2.047377368579   -0.417584888453
     H    0.561619085826   -1.719794191656    1.194438582487
     H   -1.988947299861    0.549976652145   -0.966679649837
  }
 
 basis=cc-pvdz
 {rhf;maxit,200}
 {uccsd(t);maxit,200}

 Variables initialized (661), CPU time= 0.00 sec
 Commands  initialized (458), CPU time= 0.00 sec, 486 directives.
 Default parameters read. Elapsed time= 0.04 sec

 Checking input...
 Passed
1


                                         ***  PROGRAM SYSTEM MOLPRO  ***
                         Copyright, University College Cardiff Consultants Limited, 2008

                                    Version 2010.1 linked May 16 2016 07:17:05


 **********************************************************************************************************************************
 LABEL *   Frequencies for min3                                                          
 Linux-4.4.3/n078(x86_64) 64 bit mpp version                                             DATE: 07-Mar-20          TIME: 02:55:50  
 **********************************************************************************************************************************

 SHA1:             9e8077add272b0f3cad6f7df79ec5211205f459d
 **********************************************************************************************************************************

 THRESHOLDS:

 ZERO    =  1.00D-12  ONEINT  =  1.00D-16  TWOINT  =  1.00D-16  PREFAC  =  1.00D-14  LOCALI  =  1.00D-09  EORDER  =  1.00D-04
 ENERGY  =  1.00D-10  ETEST   =  0.00D+00  EDENS   =  0.00D+00  THRDEDEF=  1.00D-06  GRADIENT=  1.00D-02  STEP    =  1.00D-03
 ORBITAL =  1.00D-10  CIVEC   =  1.00D-05  COEFF   =  1.00D-04  PRINTCI =  5.00D-02  PUNCHCI =  9.90D+01  OPTGRAD =  1.00D-06
 OPTENERG=  1.00D-06  OPTSTEP =  3.00D-04  THRGRAD =  1.00D-10  COMPRESS=  1.00D-13  VARMIN  =  1.00D-07  VARMAX  =  1.00D-03
 THRDOUB =  0.00D+00  THRDIV  =  1.00D-05  THRRED  =  1.00D-07  THRPSP  =  1.00D+00  THRDC   =  1.00D-10  THRCS   =  1.00D-10
 THRNRM  =  1.00D-08  THREQ   =  0.00D+00  THRDE   =  1.00D+00  THRREF  =  1.00D-05  SPARFAC =  1.00D+00  THRDLP  =  1.00D-07
 THRDIA  =  1.00D-10  THRDLS  =  1.00D-07  THRGPS  =  0.00D+00  THRKEX  =  0.00D+00  THRDIS  =  2.00D-01  THRVAR  =  1.00D-10
 THRLOC  =  1.00D-06  THRGAP  =  1.00D-06  THRLOCT = -1.00D+00  THRGAPT = -1.00D+00  THRORB  =  1.00D-06  THRMLTP =  0.00D+00
 THRCPQCI=  1.00D-10  KEXTA   =  0.00D+00  THRCOARS=  0.00D+00  SYMTOL  =  1.00D-06  GRADTOL =  1.00D-06  THROVL  =  1.00D-08
 THRORTH =  1.00D-08  GRID    =  1.00D-06  GRIDMAX =  1.00D-03  DTMAX   =  0.00D+00

 SETTING GEOMTYP        =    XYZ

 Variable memory set to 1000000000 words,  buffer space   230000 words

 SETTING BASIS          =    CC-PVDZ


 Recomputing integrals since basis changed


 Using spherical harmonics

 Library entry C      S cc-pVDZ              selected for orbital group  1
 Library entry C      P cc-pVDZ              selected for orbital group  1
 Library entry C      D cc-pVDZ              selected for orbital group  1
 Library entry O      S cc-pVDZ              selected for orbital group  2
 Library entry O      P cc-pVDZ              selected for orbital group  2
 Library entry O      D cc-pVDZ              selected for orbital group  2
 Library entry H      S cc-pVDZ              selected for orbital group  3
 Library entry H      P cc-pVDZ              selected for orbital group  3

1PROGRAM * SEWARD (Integral evaluation for generally contracted gaussian basis sets)     Author: Roland Lindh, 1990

 Geometry written to block  1 of record 700


 Point group  C1  



 ATOMIC COORDINATES

 NR  ATOM    CHARGE       X              Y              Z

   1  C       6.00    3.357976046    1.344348918   -0.089443368
   2  C       6.00    0.929389944   -0.113370094   -0.371319661
   3  C       6.00    0.851005696   -2.903174955    0.191651343
   4  O       8.00   -1.059697462    1.375201813    0.480937143
   5  O       8.00   -3.473001878    0.173801879   -0.227801319
   6  H       1.00    4.885668369    0.398722182   -1.155490170
   7  H       1.00    3.141874902    3.293428966   -0.805654578
   8  H       1.00    3.957740214    1.462309068    1.923063858
   9  H       1.00   -0.954500226   -3.748102746   -0.416382527
  10  H       1.00    2.421992621   -3.868982514   -0.789121076
  11  H       1.00    1.061306262   -3.249940025    2.257161802
  12  H       1.00   -3.758565687    1.039305251   -1.826759795

 Bond lengths in Bohr (Angstrom)

 1-2  2.846476668  1-6  2.089140862  1-7  2.087719147  1-8  2.103287186  2-3  2.847119878
     ( 1.506290578)     ( 1.105525731)     ( 1.104773391)     ( 1.113011643)     ( 1.506630951)

  2- 4  2.626529401   3- 9  2.084096878   3-10  2.088707423   3-11  2.104947932   4- 5  2.787419992
       ( 1.389899498)       ( 1.102856569)       ( 1.105296365)       ( 1.113890472)       ( 1.475039132)

  5-12  1.840464883
       ( 0.973932070)

 Bond angles

  1-2-3  120.37866573   1-2-4  108.89026347   2-1-6  109.97224627   2-1-7  110.84367066

  2- 1- 8  111.51627653   2- 3- 9  111.31023157   2- 3-10  109.84834841   2- 3-11  110.65255076

  2- 4- 5  109.20136088   3- 2- 4  118.05543914   4- 5-12   98.77445957   6- 1- 7  108.85758629

  6- 1- 8  107.76540384   7- 1- 8  107.78281300   9- 3-10  109.09503764   9- 3-11  107.82124033

 10- 3-11  108.02572831

 NUCLEAR CHARGE:                   41
 NUMBER OF PRIMITIVE AOS:         184
 NUMBER OF SYMMETRY AOS:          179
 NUMBER OF CONTRACTIONS:          105   ( 105A   )
 NUMBER OF CORE ORBITALS:           5   (   5A   )
 NUMBER OF VALENCE ORBITALS:       27   (  27A   )


 NUCLEAR REPULSION ENERGY  183.20958403


 Eigenvalues of metric

         1 0.345E-02 0.435E-02 0.105E-01 0.141E-01 0.182E-01 0.214E-01 0.331E-01 0.346E-01


 Contracted 2-electron integrals neglected if value below      1.0D-16
 AO integral compression algorithm  1   Integral accuracy      1.0D-16

     127.402 MB (compressed) written to integral file ( 93.4%)

     Node minimum: 34.341 MB, node maximum: 56.623 MB


 NUMBER OF SORTED TWO-ELECTRON INTEGRALS:    5164320.     BUFFER LENGTH:  32768
 NUMBER OF SEGMENTS:   1  SEGMENT LENGTH:    5164320      RECORD LENGTH: 524288

 Memory used in sort:       5.72 MW

 SORT1 READ    17075251. AND WROTE     5135888. INTEGRALS IN     15 RECORDS. CPU TIME:     0.30 SEC, REAL TIME:     0.34 SEC
 SORT2 READ    15396558. AND WROTE    15487395. INTEGRALS IN    417 RECORDS. CPU TIME:     0.10 SEC, REAL TIME:     0.13 SEC

 Node minimum:     5160610.  Node maximum:     5164320. integrals

 OPERATOR DM      FOR CENTER  0  COORDINATES:    0.000000    0.000000    0.000000


 **********************************************************************************************************************************
 DATASETS  * FILE   NREC   LENGTH (MB)   RECORD NAMES
              1      18        3.17       500      610      700      900      950      970     1000      129      960     1100   
                                          VAR    BASINP    GEOM    SYMINP    ZMAT    AOBASIS   BASIS     P2S    ABASIS      S 
                                         1400     1410     1200     1210     1080     1600     1650     1700   
                                           T        V       H0       H01     AOSYM     SMH    MOLCAS    OPER   

 PROGRAMS   *        TOTAL       INT
 CPU TIMES  *         1.11      1.07
 REAL TIME  *         1.46 SEC
 DISK USED  *       318.02 MB      
 GA USED    *         0.00 MB       (max)       0.00 MB       (current)
 **********************************************************************************************************************************

1PROGRAM * RHF-SCF (OPEN SHELL)       Authors: W. Meyer, H.-J. Werner


 NUMBER OF ELECTRONS:      21+   20-    SPACE SYMMETRY=1    SPIN SYMMETRY: Doublet 
 CONVERGENCE THRESHOLDS:    1.00E-10 (Density)    1.00E-11 (Energy)
 MAX. NUMBER OF ITERATIONS:      200
 INTERPOLATION TYPE:            DIIS
 INTERPOLATION STEPS:              2 (START)      1 (STEP)
 LEVEL SHIFTS:                 -0.30 (CLOSED)  0.00 (OPEN) 



 Orbital guess generated from atomic densities. Full valence occupancy:   32

 Molecular orbital dump at record        2100.2

 ITERATION    DDIFF          GRAD             ENERGY        2-EL.EN.            DIPOLE MOMENTS         DIIS
    1      0.000D+00      0.000D+00      -267.17820535    555.794532    0.57170    0.04798   -0.74936    0
    2      0.000D+00      0.617D-02      -267.24889554    555.714261    0.41460   -0.13195   -0.59851    1
    3      0.928D-02      0.214D-02      -267.26108326    555.632919    0.39432   -0.05984   -0.62588    2
    4      0.336D-02      0.912D-03      -267.26469733    555.784941    0.37955   -0.09992   -0.64225    3
    5      0.186D-02      0.364D-03      -267.26526758    555.756319    0.38203   -0.09339   -0.63520    4
    6      0.793D-03      0.110D-03      -267.26534423    555.742604    0.38027   -0.09319   -0.63795    5
    7      0.277D-03      0.512D-04      -267.26536446    555.739572    0.37954   -0.09292   -0.63744    6
    8      0.144D-03      0.273D-04      -267.26537055    555.737639    0.37981   -0.09304   -0.63766    7
    9      0.926D-04      0.115D-04      -267.26537147    555.737945    0.37999   -0.09299   -0.63742    8
   10      0.367D-04      0.503D-05      -267.26537163    555.738562    0.38025   -0.09301   -0.63748    9
   11      0.147D-04      0.197D-05      -267.26537166    555.738403    0.38031   -0.09300   -0.63749    9
   12      0.653D-05      0.673D-06      -267.26537166    555.738537    0.38033   -0.09300   -0.63748    9
   13      0.228D-05      0.227D-06      -267.26537166    555.738452    0.38033   -0.09300   -0.63748    9
   14      0.634D-06      0.762D-07      -267.26537166    555.738461    0.38033   -0.09300   -0.63748    9
   15      0.194D-06      0.303D-07      -267.26537166    555.738457    0.38033   -0.09300   -0.63748    9
   16      0.831D-07      0.146D-07      -267.26537166    555.738459    0.38033   -0.09301   -0.63748    9
   17      0.379D-07      0.758D-08      -267.26537166    555.738459    0.38033   -0.09301   -0.63748    9
   18      0.225D-07      0.344D-08      -267.26537166    555.738459    0.38033   -0.09301   -0.63748    9
   19      0.115D-07      0.134D-08      -267.26537166    555.738459    0.38033   -0.09301   -0.63748    9
   20      0.446D-08      0.573D-09      -267.26537166    555.738459    0.38033   -0.09301   -0.63748    9
   21      0.167D-08      0.290D-09      -267.26537166    555.738459    0.38033   -0.09301   -0.63748    9
   22      0.763D-09      0.163D-09      -267.26537166    555.738459    0.38033   -0.09301   -0.63748    9
   23      0.451D-09      0.805D-10      -267.26537166    555.738459    0.38033   -0.09301   -0.63748    9
   24      0.266D-09      0.321D-10      -267.26537166    555.738459    0.38033   -0.09301   -0.63748    9
   25      0.945D-10      0.131D-10      -267.26537166    555.738459    0.38033   -0.09301   -0.63748    0

 Final alpha occupancy:  21
 Final beta  occupancy:  20

 !RHF STATE 1.1 Energy               -267.265371662955
 Nuclear energy                       183.20958403
 One-electron energy                 -728.34418513
 Two-electron energy                  277.86922944
 Virial quotient                       -1.00155772
 !RHF STATE 1.1 Dipole moment           0.38033052    -0.09300547    -0.63747942
 Dipole moment /Debye                   0.96664045    -0.23638083    -1.62020494

 Orbital energies:

         1.1          2.1          3.1          4.1          5.1          6.1          7.1          8.1          9.1         10.1
    -20.630524   -20.628721   -11.279319   -11.237852   -11.232265    -1.469979    -1.240755    -1.023249    -0.945346    -0.768433

        11.1         12.1         13.1         14.1         15.1         16.1         17.1         18.1         19.1         20.1
     -0.704573    -0.643011    -0.626666    -0.588757    -0.545071    -0.543290    -0.539061    -0.517002    -0.492951    -0.469852

        21.1         22.1         23.1
     -0.352367     0.181318     0.183492


 **********************************************************************************************************************************
 DATASETS  * FILE   NREC   LENGTH (MB)   RECORD NAMES
              1      18        3.17       500      610      700      900      950      970     1000      129      960     1100   
                                          VAR    BASINP    GEOM    SYMINP    ZMAT    AOBASIS   BASIS     P2S    ABASIS      S 
                                         1400     1410     1200     1210     1080     1600     1650     1700   
                                           T        V       H0       H01     AOSYM     SMH    MOLCAS    OPER   

              2       3        0.77       700     1000     2100   
                                         GEOM     BASIS     RHF  

 PROGRAMS   *        TOTAL       RHF       INT
 CPU TIMES  *         2.48      1.37      1.07
 REAL TIME  *         2.94 SEC
 DISK USED  *       334.58 MB      
 SF USED    *         0.04 MB      
 GA USED    *         0.00 MB       (max)       0.00 MB       (current)
 **********************************************************************************************************************************


1PROGRAM * CCSD (Unrestricted open-shell coupled cluster)     Authors: C. Hampel, H.-J. Werner, 1991, M. Deegan, P.J. Knowles, 1992


 Convergence thresholds:  THRVAR = 1.00D-08  THRDEN = 1.00D-10

 CCSD(T)     terms to be evaluated (factor= 1.000)


 Number of core orbitals:           5 (   5 )
 Number of closed-shell orbitals:  15 (  15 )
 Number of active  orbitals:        1 (   1 )
 Number of external orbitals:      84 (  84 )

 Memory could be reduced to 24.91 Mwords without degradation in triples

 Number of N-1 electron functions:              31
 Number of N-2 electron functions:             465
 Number of singly external CSFs:              2635
 Number of doubly external CSFs:           2537250
 Total number of CSFs:                     2539885

 Molecular orbitals read from record     2100.2  Type=RHF/CANONICAL (state 1.1)

 Integral transformation finished. Total CPU:   0.92 sec, npass=  1  Memory used:  12.63 MW

 Starting RMP2 calculation

 ITER.      SQ.NORM     CORR.ENERGY   TOTAL ENERGY   ENERGY CHANGE        DEN1      VAR(S)    VAR(P)  DIIS     TIME
   1      1.24305160    -0.78638726  -268.05175892    -0.78638726    -0.00305032  0.20D-04  0.11D-02  1  1     1.23
   2      1.24569384    -0.78967684  -268.05504850    -0.00328959    -0.00000475  0.54D-06  0.19D-05  2  2     1.51
   3      1.24575942    -0.78971892  -268.05509059    -0.00004208    -0.00000003  0.16D-07  0.68D-08  3  3     1.82
   4      1.24576038    -0.78971893  -268.05509059    -0.00000000    -0.00000000  0.27D-09  0.38D-10  4  4     2.15
   5      1.24576046    -0.78971896  -268.05509062    -0.00000003    -0.00000000  0.25D-11  0.65D-12  5  5     2.52
   6      1.24576047    -0.78971896  -268.05509063    -0.00000001    -0.00000000  0.28D-13  0.86D-14  6  6     2.91
   7      1.24576047    -0.78971896  -268.05509063     0.00000000    -0.00000000  0.47D-15  0.12D-15  6  1     3.30
   8      1.24576047    -0.78971896  -268.05509063     0.00000000    -0.00000000  0.59D-17  0.13D-17  6  2     3.69

 Norm of t1 vector:      0.03892956      S-energy:    -0.00227140      T1 diagnostic:  0.00055017
 Norm of t2 vector:      0.49421145      P-energy:    -0.78744757
                                         Alpha-Beta:  -0.59343002
                                         Alpha-Alpha: -0.10093960
                                         Beta-Beta:   -0.09307795

 Spin contamination <S**2-Sz**2-Sz>     0.00104016
  Reference energy                   -267.265371662957
  RHF-RMP2 correlation energy          -0.789718964623
 !RHF-RMP2 energy                    -268.055090627580

 Starting UCCSD calculation

 ITER.      SQ.NORM     CORR.ENERGY   TOTAL ENERGY   ENERGY CHANGE        DEN1      VAR(S)    VAR(P)  DIIS     TIME
   1      1.26282500    -0.80905568  -268.07442734    -0.80905568    -0.02516087  0.38D-02  0.59D-02  1  1     9.95
   2      1.29160761    -0.83646943  -268.10184109    -0.02741375    -0.00201203  0.22D-03  0.66D-03  2  2    16.18
   3      1.30155331    -0.84096922  -268.10634088    -0.00449979    -0.00032476  0.19D-03  0.56D-04  3  3    22.43
   4      1.30646909    -0.84244710  -268.10781876    -0.00147788    -0.00007210  0.43D-04  0.14D-04  4  4    28.69
   5      1.30919931    -0.84283530  -268.10820696    -0.00038820    -0.00002368  0.19D-04  0.32D-05  5  5    35.23
   6      1.31113832    -0.84303979  -268.10841145    -0.00020449    -0.00000646  0.42D-05  0.12D-05  6  6    41.63
   7      1.31208773    -0.84309855  -268.10847021    -0.00005876    -0.00000208  0.14D-05  0.37D-06  6  2    48.09
   8      1.31252993    -0.84314128  -268.10851294    -0.00004273    -0.00000065  0.45D-06  0.11D-06  6  1    54.45
   9      1.31271548    -0.84314587  -268.10851754    -0.00000459    -0.00000022  0.15D-06  0.35D-07  6  4    60.22
  10      1.31277891    -0.84314882  -268.10852048    -0.00000294    -0.00000005  0.35D-07  0.96D-08  6  3    65.84
  11      1.31280853    -0.84314756  -268.10851922     0.00000126    -0.00000002  0.13D-07  0.28D-08  6  5    71.46
  12      1.31281897    -0.84314730  -268.10851896     0.00000026    -0.00000000  0.26D-08  0.96D-09  6  6    77.11
  13      1.31281783    -0.84314638  -268.10851805     0.00000092    -0.00000000  0.97D-09  0.29D-09  6  2    82.80
  14      1.31281263    -0.84314554  -268.10851720     0.00000084    -0.00000000  0.21D-09  0.68D-10  6  1    88.43
  15      1.31280855    -0.84314495  -268.10851662     0.00000059    -0.00000000  0.79D-10  0.19D-10  6  4    94.07
  16      1.31280536    -0.84314457  -268.10851623     0.00000039    -0.00000000  0.28D-10  0.63D-11  6  3    99.72
  17      1.31280315    -0.84314433  -268.10851599     0.00000024    -0.00000000  0.10D-10  0.24D-11  6  5   105.49
  18      1.31280225    -0.84314427  -268.10851593     0.00000006    -0.00000000  0.41D-11  0.88D-12  6  6   111.98
  19      1.31280163    -0.84314424  -268.10851590     0.00000003    -0.00000000  0.16D-11  0.37D-12  6  2   118.39
  20      1.31280131    -0.84314422  -268.10851589     0.00000001    -0.00000000  0.60D-12  0.13D-12  6  1   124.76
  21      1.31280115    -0.84314421  -268.10851588     0.00000001    -0.00000000  0.28D-12  0.58D-13  6  4   131.10
  22      1.31280103    -0.84314421  -268.10851587     0.00000001    -0.00000000  0.74D-13  0.22D-13  6  3   137.68
  23      1.31280097    -0.84314420  -268.10851587     0.00000000    -0.00000000  0.22D-13  0.63D-14  6  5   144.43
  24      1.31280096    -0.84314420  -268.10851587    -0.00000000    -0.00000000  0.68D-14  0.23D-14  6  6   151.07
  25      1.31280097    -0.84314420  -268.10851587    -0.00000000    -0.00000000  0.21D-14  0.53D-15  6  2   157.67
  26      1.31280097    -0.84314421  -268.10851587    -0.00000000    -0.00000000  0.78D-15  0.16D-15  6  1   164.33
  27      1.31280098    -0.84314421  -268.10851587    -0.00000000    -0.00000000  0.20D-15  0.63D-16  6  3   170.99
  28      1.31280099    -0.84314421  -268.10851587    -0.00000000    -0.00000000  0.30D-16  0.11D-16  6  4   177.71
  29      1.31280099    -0.84314421  -268.10851587    -0.00000000    -0.00000000  0.72D-17  0.30D-17  6  5   184.31
  30      1.31280099    -0.84314421  -268.10851587    -0.00000000    -0.00000000  0.15D-17  0.55D-18  6  6   190.91
  31      1.31280099    -0.84314421  -268.10851587    -0.00000000    -0.00000000  0.36D-18  0.11D-18  6  2   197.59

 Norm of t1 vector:      0.13872387      S-energy:    -0.00282105      T1 diagnostic:  0.01617019
                                                                       D1 diagnostic:  0.06282666
 Norm of t2 vector:      0.54180871      P-energy:    -0.84032316
                                         Alpha-Beta:  -0.66488470
                                         Alpha-Alpha: -0.09147087
                                         Beta-Beta:   -0.08396759

 Spin contamination <S**2-Sz**2-Sz>     0.00217180

 Memory could be reduced to 28.85 Mwords without degradation in triples
 

 RESULTS
 =======

  Reference energy                   -267.265371662957
  UCCSD singles energy                 -0.002821050936
  UCCSD pair energy                    -0.840323155669
  UCCSD correlation energy             -0.843144206605
  Triples (T) contribution             -0.024980807922
  Total correlation energy             -0.868125014527
 
  RHF-UCCSD energy                   -268.108515869562
  RHF-UCCSD[T] energy                -268.134832977032
  RHF-UCCSD-T energy                 -268.133075093180
 !RHF-UCCSD(T) energy                -268.133496677484

 Program statistics:

 Available memory in ccsd:               999997692
 Min. memory needed in ccsd:               7337057
 Max. memory used in ccsd:                10523002
 Max. memory used in cckext:              10867977 (31 integral passes)
 Max. memory used in cckint:              12633073 ( 1 integral passes)



 **********************************************************************************************************************************
 DATASETS  * FILE   NREC   LENGTH (MB)   RECORD NAMES
              1      18        3.17       500      610      700      900      950      970     1000      129      960     1100   
                                          VAR    BASINP    GEOM    SYMINP    ZMAT    AOBASIS   BASIS     P2S    ABASIS      S 
                                         1400     1410     1200     1210     1080     1600     1650     1700   
                                           T        V       H0       H01     AOSYM     SMH    MOLCAS    OPER   

              2       3        0.77       700     1000     2100   
                                         GEOM     BASIS     RHF  

 PROGRAMS   *        TOTAL  UCCSD(T)       RHF       INT
 CPU TIMES  *       250.69    248.21      1.37      1.07
 REAL TIME  *       258.41 SEC
 DISK USED  *         1.30 GB      
 SF USED    *       553.73 MB      
 GA USED    *         0.00 MB       (max)       0.00 MB       (current)
 **********************************************************************************************************************************

        UCCSD(T)        RHF-SCF 
   -268.13349668   -267.26537166
 **********************************************************************************************************************************
 Variable memory released
