
 Primary working directories    : /tmp/320938.284.gen4.q
 Secondary working directories  : /tmp/320938.284.gen4.q
 Wavefunction directory         : /home/vulcan/mel64643/wfu/
 Main file repository           : /tmp/320938.284.gen4.q/

 ARCHNAME  : Linux/x86_64
 FC        : /opt/intel/compilers_and_libraries_2016.1.150/linux/bin/intel64/ifort
 FCVERSION : 16.0.1
 BLASLIB   : -mkl
 id        : ccgc

 Nodes     nprocs
 n058         3
 Number of processes for MPI-2 version of Molpro:   nprocs(total)=    4   nprocs(compute)=    3   nprocs(helper)=    1
 ga_uses_ma=false, calling ma_init with nominal heap.
 GA-space will be limited to   8.0 MW (determined by -G option)

 Using customized tuning parameters: mindgm=10; mindgv=16; mindgc=4; mindgr=1; noblas=0; mincuda=1000; minvec=7
 default implementation of scratch files=sf  

 ***,Frequencies for min3
 memory,1000,m
 gthresh,energy=1.0d-10,orbital=1.0d-10,oneint=1.0d-16,twoint=1.0d-16,optgrad=1.0d-6,compress=1.0d-13
 geomtyp=xyz
 
  geometry = {
  12
  arbitrary comment
     C    1.776964391707    0.711398808326   -0.047331391796
     C    0.491811976407   -0.059992870174   -0.197129665366
     C    0.450331042376   -1.536293935297    0.101609264588
     O   -0.560794521494    0.727223516895    0.254650705618
     O   -1.837818950456    0.092275797423   -0.120742069704
     H    2.585193206302    0.211585687720   -0.611171379359
     H    1.660327652719    1.742973969993   -0.425577250871
     H    2.095541629910    0.773801068528    1.018226537895
     H   -0.504928597751   -1.982717714311   -0.219189745152
     H    1.281764314883   -2.047117476391   -0.416928949918
     H    0.562244473222   -1.719442648224    1.195310128111
     H   -1.988352358681    0.551078085099   -0.964984746364
  }
 
 basis=cc-pvdz
 {rhf;maxit,200}
 {uccsd(t);maxit,200}

 Variables initialized (661), CPU time= 0.01 sec
 Commands  initialized (458), CPU time= 0.00 sec, 486 directives.
 Default parameters read. Elapsed time= 0.06 sec

 Checking input...
 Passed
1


                                         ***  PROGRAM SYSTEM MOLPRO  ***
                         Copyright, University College Cardiff Consultants Limited, 2008

                                    Version 2010.1 linked May 16 2016 07:17:05


 **********************************************************************************************************************************
 LABEL *   Frequencies for min3                                                          
 Linux-4.4.3/n058(x86_64) 64 bit mpp version                                             DATE: 07-Mar-20          TIME: 02:38:35  
 **********************************************************************************************************************************

 SHA1:             9e8077add272b0f3cad6f7df79ec5211205f459d
 **********************************************************************************************************************************

 THRESHOLDS:

 ZERO    =  1.00D-12  ONEINT  =  1.00D-16  TWOINT  =  1.00D-16  PREFAC  =  1.00D-14  LOCALI  =  1.00D-09  EORDER  =  1.00D-04
 ENERGY  =  1.00D-10  ETEST   =  0.00D+00  EDENS   =  0.00D+00  THRDEDEF=  1.00D-06  GRADIENT=  1.00D-02  STEP    =  1.00D-03
 ORBITAL =  1.00D-10  CIVEC   =  1.00D-05  COEFF   =  1.00D-04  PRINTCI =  5.00D-02  PUNCHCI =  9.90D+01  OPTGRAD =  1.00D-06
 OPTENERG=  1.00D-06  OPTSTEP =  3.00D-04  THRGRAD =  1.00D-10  COMPRESS=  1.00D-13  VARMIN  =  1.00D-07  VARMAX  =  1.00D-03
 THRDOUB =  0.00D+00  THRDIV  =  1.00D-05  THRRED  =  1.00D-07  THRPSP  =  1.00D+00  THRDC   =  1.00D-10  THRCS   =  1.00D-10
 THRNRM  =  1.00D-08  THREQ   =  0.00D+00  THRDE   =  1.00D+00  THRREF  =  1.00D-05  SPARFAC =  1.00D+00  THRDLP  =  1.00D-07
 THRDIA  =  1.00D-10  THRDLS  =  1.00D-07  THRGPS  =  0.00D+00  THRKEX  =  0.00D+00  THRDIS  =  2.00D-01  THRVAR  =  1.00D-10
 THRLOC  =  1.00D-06  THRGAP  =  1.00D-06  THRLOCT = -1.00D+00  THRGAPT = -1.00D+00  THRORB  =  1.00D-06  THRMLTP =  0.00D+00
 THRCPQCI=  1.00D-10  KEXTA   =  0.00D+00  THRCOARS=  0.00D+00  SYMTOL  =  1.00D-06  GRADTOL =  1.00D-06  THROVL  =  1.00D-08
 THRORTH =  1.00D-08  GRID    =  1.00D-06  GRIDMAX =  1.00D-03  DTMAX   =  0.00D+00

 SETTING GEOMTYP        =    XYZ

 Variable memory set to 1000000000 words,  buffer space   230000 words

 SETTING BASIS          =    CC-PVDZ


 Recomputing integrals since basis changed


 Using spherical harmonics

 Library entry C      S cc-pVDZ              selected for orbital group  1
 Library entry C      P cc-pVDZ              selected for orbital group  1
 Library entry C      D cc-pVDZ              selected for orbital group  1
 Library entry O      S cc-pVDZ              selected for orbital group  2
 Library entry O      P cc-pVDZ              selected for orbital group  2
 Library entry O      D cc-pVDZ              selected for orbital group  2
 Library entry H      S cc-pVDZ              selected for orbital group  3
 Library entry H      P cc-pVDZ              selected for orbital group  3

1PROGRAM * SEWARD (Integral evaluation for generally contracted gaussian basis sets)     Author: Roland Lindh, 1990

 Geometry written to block  1 of record 700


 Point group  C1  



 ATOMIC COORDINATES

 NR  ATOM    CHARGE       X              Y              Z

   1  C       6.00    3.357976046    1.344348918   -0.089443368
   2  C       6.00    0.929389944   -0.113370094   -0.372521080
   3  C       6.00    0.851002339   -2.903174795    0.192013682
   4  O       8.00   -1.059748062    1.374253283    0.481220093
   5  O       8.00   -3.472974495    0.174375986   -0.228169444
   6  H       1.00    4.885307157    0.399839003   -1.154946526
   7  H       1.00    3.137564552    3.293743457   -0.804224452
   8  H       1.00    3.959999778    1.462272100    1.924169296
   9  H       1.00   -0.954176766   -3.746793476   -0.414208589
  10  H       1.00    2.422183520   -3.868491389   -0.787881532
  11  H       1.00    1.062488073   -3.249275704    2.258808784
  12  H       1.00   -3.757441411    1.041386658   -1.823556892

 Bond lengths in Bohr (Angstrom)

 1-2  2.846595891  1-6  2.088093935  1-7  2.087973251  1-8  2.104987984  2-3  2.847429434
     ( 1.506353669)     ( 1.104971721)     ( 1.104907857)     ( 1.113911666)     ( 1.506794761)

  2- 4  2.626512385   3- 9  2.082755271   3-10  2.088214803   3-11  2.106217949   4- 5  2.786862190
       ( 1.389890493)       ( 1.102146621)       ( 1.105035681)       ( 1.114562536)       ( 1.474743956)

  5-12  1.837903708
       ( 0.972576754)

 Bond angles

  1-2-3  120.36450473   1-2-4  108.89006718   2-1-6  109.97795651   2-1-7  110.73219500

  2- 1- 8  111.58101072   2- 3- 9  111.28486691   2- 3-10  109.82609780   2- 3-11  110.65768998

  2- 4- 5  109.22010463   3- 2- 4  118.01041570   4- 5-12   98.73590052   6- 1- 7  108.95584683

  6- 1- 8  107.71436691   7- 1- 8  107.77983401   9- 3-10  109.16582574   9- 3-11  107.82366338

 10- 3-11  107.99635321

 NUCLEAR CHARGE:                   41
 NUMBER OF PRIMITIVE AOS:         184
 NUMBER OF SYMMETRY AOS:          179
 NUMBER OF CONTRACTIONS:          105   ( 105A   )
 NUMBER OF CORE ORBITALS:           5   (   5A   )
 NUMBER OF VALENCE ORBITALS:       27   (  27A   )


 NUCLEAR REPULSION ENERGY  183.22416337


 Eigenvalues of metric

         1 0.345E-02 0.436E-02 0.105E-01 0.141E-01 0.182E-01 0.214E-01 0.331E-01 0.346E-01


 Contracted 2-electron integrals neglected if value below      1.0D-16
 AO integral compression algorithm  1   Integral accuracy      1.0D-16

     127.402 MB (compressed) written to integral file ( 93.4%)

     Node minimum: 31.982 MB, node maximum: 51.380 MB


 NUMBER OF SORTED TWO-ELECTRON INTEGRALS:    5164320.     BUFFER LENGTH:  32768
 NUMBER OF SEGMENTS:   1  SEGMENT LENGTH:    5164320      RECORD LENGTH: 524288

 Memory used in sort:       5.72 MW

 SORT1 READ    17075251. AND WROTE     5135900. INTEGRALS IN     15 RECORDS. CPU TIME:     0.34 SEC, REAL TIME:     0.38 SEC
 SORT2 READ    15396645. AND WROTE    15487395. INTEGRALS IN    588 RECORDS. CPU TIME:     0.08 SEC, REAL TIME:     0.12 SEC

 Node minimum:     5160610.  Node maximum:     5164320. integrals

 OPERATOR DM      FOR CENTER  0  COORDINATES:    0.000000    0.000000    0.000000


 **********************************************************************************************************************************
 DATASETS  * FILE   NREC   LENGTH (MB)   RECORD NAMES
              1      18        3.17       500      610      700      900      950      970     1000      129      960     1100   
                                          VAR    BASINP    GEOM    SYMINP    ZMAT    AOBASIS   BASIS     P2S    ABASIS      S 
                                         1400     1410     1200     1210     1080     1600     1650     1700   
                                           T        V       H0       H01     AOSYM     SMH    MOLCAS    OPER   

 PROGRAMS   *        TOTAL       INT
 CPU TIMES  *         1.18      1.11
 REAL TIME  *         1.60 SEC
 DISK USED  *       314.36 MB      
 GA USED    *         0.00 MB       (max)       0.00 MB       (current)
 **********************************************************************************************************************************

1PROGRAM * RHF-SCF (OPEN SHELL)       Authors: W. Meyer, H.-J. Werner


 NUMBER OF ELECTRONS:      21+   20-    SPACE SYMMETRY=1    SPIN SYMMETRY: Doublet 
 CONVERGENCE THRESHOLDS:    1.00E-10 (Density)    1.00E-11 (Energy)
 MAX. NUMBER OF ITERATIONS:      200
 INTERPOLATION TYPE:            DIIS
 INTERPOLATION STEPS:              2 (START)      1 (STEP)
 LEVEL SHIFTS:                 -0.30 (CLOSED)  0.00 (OPEN) 



 Orbital guess generated from atomic densities. Full valence occupancy:   32

 Molecular orbital dump at record        2100.2

 ITERATION    DDIFF          GRAD             ENERGY        2-EL.EN.            DIPOLE MOMENTS         DIIS
    1      0.000D+00      0.000D+00      -267.17829344    555.813823    0.57181    0.05001   -0.74622    0
    2      0.000D+00      0.617D-02      -267.24899347    555.739164    0.41502   -0.13096   -0.59704    1
    3      0.928D-02      0.214D-02      -267.26117581    555.656507    0.39461   -0.05890   -0.62471    2
    4      0.336D-02      0.912D-03      -267.26478661    555.809171    0.37984   -0.09903   -0.64142    3
    5      0.186D-02      0.363D-03      -267.26535529    555.780624    0.38228   -0.09254   -0.63447    4
    6      0.792D-03      0.110D-03      -267.26543149    555.766904    0.38050   -0.09234   -0.63724    5
    7      0.277D-03      0.511D-04      -267.26545158    555.763891    0.37976   -0.09208   -0.63675    6
    8      0.143D-03      0.272D-04      -267.26545762    555.761960    0.38002   -0.09220   -0.63697    7
    9      0.922D-04      0.115D-04      -267.26545854    555.762261    0.38020   -0.09215   -0.63672    8
   10      0.365D-04      0.501D-05      -267.26545870    555.762876    0.38046   -0.09217   -0.63679    9
   11      0.147D-04      0.196D-05      -267.26545873    555.762717    0.38051   -0.09216   -0.63679    9
   12      0.651D-05      0.671D-06      -267.26545873    555.762851    0.38053   -0.09216   -0.63679    9
   13      0.227D-05      0.226D-06      -267.26545873    555.762767    0.38053   -0.09216   -0.63679    9
   14      0.632D-06      0.759D-07      -267.26545873    555.762776    0.38053   -0.09216   -0.63679    9
   15      0.193D-06      0.302D-07      -267.26545873    555.762772    0.38054   -0.09216   -0.63679    9
   16      0.828D-07      0.146D-07      -267.26545873    555.762773    0.38054   -0.09216   -0.63679    9
   17      0.377D-07      0.755D-08      -267.26545873    555.762773    0.38054   -0.09216   -0.63679    9
   18      0.224D-07      0.343D-08      -267.26545873    555.762773    0.38054   -0.09216   -0.63679    9
   19      0.115D-07      0.133D-08      -267.26545873    555.762773    0.38054   -0.09216   -0.63679    9
   20      0.444D-08      0.570D-09      -267.26545873    555.762773    0.38054   -0.09216   -0.63679    9
   21      0.166D-08      0.288D-09      -267.26545873    555.762773    0.38054   -0.09216   -0.63679    9
   22      0.759D-09      0.163D-09      -267.26545873    555.762773    0.38054   -0.09216   -0.63679    9
   23      0.449D-09      0.800D-10      -267.26545873    555.762773    0.38054   -0.09216   -0.63679    9
   24      0.265D-09      0.319D-10      -267.26545873    555.762773    0.38054   -0.09216   -0.63679    9
   25      0.938D-10      0.130D-10      -267.26545873    555.762773    0.38054   -0.09216   -0.63679    0

 Final alpha occupancy:  21
 Final beta  occupancy:  20

 !RHF STATE 1.1 Energy               -267.265458728666
 Nuclear energy                       183.22416337
 One-electron energy                 -728.37100872
 Two-electron energy                  277.88138662
 Virial quotient                       -1.00154790
 !RHF STATE 1.1 Dipole moment           0.38053622    -0.09216372    -0.63678535
 Dipole moment /Debye                   0.96716325    -0.23424147    -1.61844090

 Orbital energies:

         1.1          2.1          3.1          4.1          5.1          6.1          7.1          8.1          9.1         10.1
    -20.630512   -20.628635   -11.279393   -11.237913   -11.232218    -1.470281    -1.240990    -1.023235    -0.945342    -0.768517

        11.1         12.1         13.1         14.1         15.1         16.1         17.1         18.1         19.1         20.1
     -0.704889    -0.643041    -0.626740    -0.588772    -0.545131    -0.543466    -0.538927    -0.517010    -0.493004    -0.469813

        21.1         22.1         23.1
     -0.352577     0.181443     0.183628


 **********************************************************************************************************************************
 DATASETS  * FILE   NREC   LENGTH (MB)   RECORD NAMES
              1      18        3.17       500      610      700      900      950      970     1000      129      960     1100   
                                          VAR    BASINP    GEOM    SYMINP    ZMAT    AOBASIS   BASIS     P2S    ABASIS      S 
                                         1400     1410     1200     1210     1080     1600     1650     1700   
                                           T        V       H0       H01     AOSYM     SMH    MOLCAS    OPER   

              2       3        0.77       700     1000     2100   
                                         GEOM     BASIS     RHF  

 PROGRAMS   *        TOTAL       RHF       INT
 CPU TIMES  *         2.81      1.63      1.11
 REAL TIME  *         3.40 SEC
 DISK USED  *       330.92 MB      
 SF USED    *         0.04 MB      
 GA USED    *         0.00 MB       (max)       0.00 MB       (current)
 **********************************************************************************************************************************


1PROGRAM * CCSD (Unrestricted open-shell coupled cluster)     Authors: C. Hampel, H.-J. Werner, 1991, M. Deegan, P.J. Knowles, 1992


 Convergence thresholds:  THRVAR = 1.00D-08  THRDEN = 1.00D-10

 CCSD(T)     terms to be evaluated (factor= 1.000)


 Number of core orbitals:           5 (   5 )
 Number of closed-shell orbitals:  15 (  15 )
 Number of active  orbitals:        1 (   1 )
 Number of external orbitals:      84 (  84 )

 Memory could be reduced to 24.91 Mwords without degradation in triples

 Number of N-1 electron functions:              31
 Number of N-2 electron functions:             465
 Number of singly external CSFs:              2635
 Number of doubly external CSFs:           2537250
 Total number of CSFs:                     2539885

 Molecular orbitals read from record     2100.2  Type=RHF/CANONICAL (state 1.1)

 Integral transformation finished. Total CPU:   1.10 sec, npass=  1  Memory used:  12.63 MW

 Starting RMP2 calculation

 ITER.      SQ.NORM     CORR.ENERGY   TOTAL ENERGY   ENERGY CHANGE        DEN1      VAR(S)    VAR(P)  DIIS     TIME
   1      1.24298700    -0.78630156  -268.05176029    -0.78630156    -0.00304950  0.20D-04  0.11D-02  1  1     1.50
   2      1.24562817    -0.78959026  -268.05504899    -0.00328870    -0.00000475  0.54D-06  0.19D-05  2  2     1.83
   3      1.24569376    -0.78963235  -268.05509108    -0.00004209    -0.00000003  0.16D-07  0.68D-08  3  3     2.18
   4      1.24569471    -0.78963235  -268.05509108    -0.00000000    -0.00000000  0.27D-09  0.38D-10  4  4     2.56
   5      1.24569480    -0.78963239  -268.05509112    -0.00000003    -0.00000000  0.25D-11  0.65D-12  5  5     2.96
   6      1.24569481    -0.78963239  -268.05509112    -0.00000001    -0.00000000  0.28D-13  0.87D-14  6  6     3.40
   7      1.24569481    -0.78963239  -268.05509112     0.00000000    -0.00000000  0.47D-15  0.12D-15  6  1     3.83
   8      1.24569481    -0.78963239  -268.05509112     0.00000000    -0.00000000  0.59D-17  0.13D-17  6  2     4.27

 Norm of t1 vector:      0.03891473      S-energy:    -0.00226935      T1 diagnostic:  0.00055064
 Norm of t2 vector:      0.49414619      P-energy:    -0.78736305
                                         Alpha-Beta:  -0.59336306
                                         Alpha-Alpha: -0.10092997
                                         Beta-Beta:   -0.09307001

 Spin contamination <S**2-Sz**2-Sz>     0.00104011
  Reference energy                   -267.265458728665
  RHF-RMP2 correlation energy          -0.789632392692
 !RHF-RMP2 energy                    -268.055091121357

 Starting UCCSD calculation

 ITER.      SQ.NORM     CORR.ENERGY   TOTAL ENERGY   ENERGY CHANGE        DEN1      VAR(S)    VAR(P)  DIIS     TIME
   1      1.26276891    -0.80898813  -268.07444686    -0.80898813    -0.02515190  0.38D-02  0.59D-02  1  1    10.66
   2      1.29153838    -0.83639338  -268.10185211    -0.02740525    -0.00201045  0.22D-03  0.66D-03  2  2    17.03
   3      1.30147673    -0.84088991  -268.10634864    -0.00449653    -0.00032462  0.19D-03  0.56D-04  3  3    23.42
   4      1.30638885    -0.84236672  -268.10782545    -0.00147681    -0.00007208  0.43D-04  0.14D-04  4  4    29.84
   5      1.30911891    -0.84275494  -268.10821367    -0.00038822    -0.00002366  0.19D-04  0.32D-05  5  5    36.30
   6      1.31105704    -0.84295939  -268.10841812    -0.00020445    -0.00000644  0.42D-05  0.12D-05  6  6    42.80
   7      1.31200456    -0.84301808  -268.10847681    -0.00005870    -0.00000207  0.14D-05  0.37D-06  6  2    49.28
   8      1.31244454    -0.84306068  -268.10851941    -0.00004259    -0.00000065  0.44D-06  0.11D-06  6  1    55.75
   9      1.31262867    -0.84306522  -268.10852395    -0.00000454    -0.00000022  0.15D-06  0.35D-07  6  4    62.23
  10      1.31269147    -0.84306814  -268.10852687    -0.00000292    -0.00000005  0.34D-07  0.95D-08  6  3    68.71
  11      1.31272082    -0.84306687  -268.10852560     0.00000126    -0.00000002  0.13D-07  0.28D-08  6  5    75.19
  12      1.31273114    -0.84306661  -268.10852534     0.00000026    -0.00000000  0.26D-08  0.95D-09  6  6    81.68
  13      1.31273000    -0.84306570  -268.10852443     0.00000091    -0.00000000  0.96D-09  0.28D-09  6  2    88.38
  14      1.31272480    -0.84306486  -268.10852359     0.00000084    -0.00000000  0.21D-09  0.67D-10  6  1    94.51
  15      1.31272073    -0.84306427  -268.10852300     0.00000058    -0.00000000  0.78D-10  0.19D-10  6  4    99.98
  16      1.31271755    -0.84306389  -268.10852262     0.00000038    -0.00000000  0.28D-10  0.63D-11  6  3   105.43
  17      1.31271535    -0.84306365  -268.10852238     0.00000024    -0.00000000  0.10D-10  0.24D-11  6  5   110.92
  18      1.31271445    -0.84306359  -268.10852232     0.00000006    -0.00000000  0.40D-11  0.87D-12  6  6   116.38
  19      1.31271385    -0.84306356  -268.10852229     0.00000003    -0.00000000  0.16D-11  0.37D-12  6  2   121.86
  20      1.31271353    -0.84306355  -268.10852227     0.00000001    -0.00000000  0.59D-12  0.13D-12  6  1   127.34
  21      1.31271337    -0.84306353  -268.10852226     0.00000001    -0.00000000  0.28D-12  0.58D-13  6  4   132.81
  22      1.31271325    -0.84306353  -268.10852225     0.00000001    -0.00000000  0.73D-13  0.21D-13  6  3   138.28
  23      1.31271319    -0.84306352  -268.10852225     0.00000000    -0.00000000  0.21D-13  0.62D-14  6  5   143.74
  24      1.31271318    -0.84306352  -268.10852225    -0.00000000    -0.00000000  0.67D-14  0.22D-14  6  6   149.22
  25      1.31271319    -0.84306353  -268.10852225    -0.00000000    -0.00000000  0.21D-14  0.52D-15  6  2   155.17
  26      1.31271319    -0.84306353  -268.10852225    -0.00000000    -0.00000000  0.77D-15  0.15D-15  6  1   160.64
  27      1.31271320    -0.84306353  -268.10852226    -0.00000000    -0.00000000  0.20D-15  0.62D-16  6  3   166.13
  28      1.31271321    -0.84306353  -268.10852226    -0.00000000    -0.00000000  0.29D-16  0.11D-16  6  4   171.61
  29      1.31271321    -0.84306353  -268.10852226    -0.00000000    -0.00000000  0.70D-17  0.29D-17  6  5   177.08
  30      1.31271321    -0.84306353  -268.10852226    -0.00000000    -0.00000000  0.15D-17  0.54D-18  6  6   182.59
  31      1.31271321    -0.84306353  -268.10852226    -0.00000000    -0.00000000  0.35D-18  0.10D-18  6  2   189.21

 Norm of t1 vector:      0.13868185      S-energy:    -0.00281866      T1 diagnostic:  0.01616574
                                                                       D1 diagnostic:  0.06285172
 Norm of t2 vector:      0.54173846      P-energy:    -0.84024486
                                         Alpha-Beta:  -0.66480976
                                         Alpha-Alpha: -0.09146819
                                         Beta-Beta:   -0.08396692

 Spin contamination <S**2-Sz**2-Sz>     0.00216824

 Memory could be reduced to 28.85 Mwords without degradation in triples
 

 RESULTS
 =======

  Reference energy                   -267.265458728665
  UCCSD singles energy                 -0.002818664202
  UCCSD pair energy                    -0.840244863301
  UCCSD correlation energy             -0.843063527504
  Triples (T) contribution             -0.024972041360
  Total correlation energy             -0.868035568863
 
  RHF-UCCSD energy                   -268.108522256169
  RHF-UCCSD[T] energy                -268.134829876552
  RHF-UCCSD-T energy                 -268.133072908562
 !RHF-UCCSD(T) energy                -268.133494297528

 Program statistics:

 Available memory in ccsd:               999997692
 Min. memory needed in ccsd:               7337057
 Max. memory used in ccsd:                10523002
 Max. memory used in cckext:              10867977 (31 integral passes)
 Max. memory used in cckint:              12633073 ( 1 integral passes)



 **********************************************************************************************************************************
 DATASETS  * FILE   NREC   LENGTH (MB)   RECORD NAMES
              1      18        3.17       500      610      700      900      950      970     1000      129      960     1100   
                                          VAR    BASINP    GEOM    SYMINP    ZMAT    AOBASIS   BASIS     P2S    ABASIS      S 
                                         1400     1410     1200     1210     1080     1600     1650     1700   
                                           T        V       H0       H01     AOSYM     SMH    MOLCAS    OPER   

              2       3        0.77       700     1000     2100   
                                         GEOM     BASIS     RHF  

 PROGRAMS   *        TOTAL  UCCSD(T)       RHF       INT
 CPU TIMES  *       237.98    235.17      1.63      1.11
 REAL TIME  *       252.99 SEC
 DISK USED  *         1.30 GB      
 SF USED    *       553.73 MB      
 GA USED    *         0.00 MB       (max)       0.00 MB       (current)
 **********************************************************************************************************************************

        UCCSD(T)        RHF-SCF 
   -268.13349430   -267.26545873
 **********************************************************************************************************************************
 Variable memory released
