
    -----------------------------------------------------------------------
          Psi4: An Open-Source Ab Initio Electronic Structure Package
                               Psi4 1.4a2.dev478 

                         Git: Rev {master} f722895 dirty


    R. M. Parrish, L. A. Burns, D. G. A. Smith, A. C. Simmonett,
    A. E. DePrince III, E. G. Hohenstein, U. Bozkaya, A. Yu. Sokolov,
    R. Di Remigio, R. M. Richard, J. F. Gonthier, A. M. James,
    H. R. McAlexander, A. Kumar, M. Saitow, X. Wang, B. P. Pritchard,
    P. Verma, H. F. Schaefer III, K. Patkowski, R. A. King, E. F. Valeev,
    F. A. Evangelista, J. M. Turney, T. D. Crawford, and C. D. Sherrill,
    J. Chem. Theory Comput. 13(7) pp 3185--3197 (2017).
    (doi: 10.1021/acs.jctc.7b00174)


                         Additional Contributions by
    P. Kraus, H. Kruse, M. H. Lechner, M. C. Schieber, R. A. Shaw,
    A. Alenaizan, R. Galvelis, Z. L. Glick, S. Lehtola, and J. P. Misiewicz

    -----------------------------------------------------------------------


    Psi4 started on: Monday, 08 June 2020 01:43PM

    Process ID: 11302
    Host:       n067
    PSIDATADIR: /opt/psi/4/master/share/psi4
    Memory:     500.0 MiB
    Threads:    4
    
  ==> Input File <==

--------------------------------------------------------------------------
set memory 40Gb

molecule {
    C   -1.174199517890   -0.774961658783   -0.000122119707
    H   -1.619191780690   -1.211086467183   -0.891051837007
    H   -1.619266333190   -1.211279077683    0.890674642893
    C   -1.174315833390    0.774780790217    0.000039360393
    H   -1.619438560890    1.210840422117    0.890934646993
    H   -1.619393466790    1.211029631617   -0.893213869075
    C    0.352869780268    0.922222840182    0.000222724573
    H    0.838734018843    1.892355543719    0.000306853844
    O    0.767273659478    0.000208408356   -1.027310963344
    C    0.353009321024   -0.922168538825   -0.000040217571
    H    0.839025827389   -1.892224238731   -0.000241571992
    O    0.767509261114   -0.000090505730    1.027399393812
}

set {
    e_convergence 10
    d_convergence 10
    freeze_core True
    basis_guess True
    cc_type conv
    maxiter 300
}

E = energy('mp2/heavy-aug-cc-pV(Q+d)Z')
psi4.print_out("\n========================OPTAVC-XTPL==========================\n\n")
psi4.print_out("MP2/QZ correlation energy {}\n".format(variable("MP2 CORRELATION ENERGY")))
psi4.print_out("SCF/QZ reference energy {}\n".format(variable("CURRENT REFERENCE ENERGY")))
psi4.print_out("\n\n=============================================================\n")

E = energy('mp2/heavy-aug-cc-pV(T+d)Z')
psi4.print_out("\n========================OPTAVC-XTPL==========================\n\n")
psi4.print_out("MP2/TZ correlation energy {}".format(variable("MP2 CORRELATION ENERGY")))
psi4.print_out("\n\n=============================================================\n")
--------------------------------------------------------------------------

Scratch directory: /tmp/

Scratch directory: /tmp/
    SCF Algorithm Type (re)set to DF.

*** tstart() called on n067
*** at Mon Jun  8 13:43:50 2020


  //>>>>>>>>>>>>>>>>>>>>>>>>>>>>>>>>>>>//
  //      Guess SCF, pcseg-0 Basis     //
  //<<<<<<<<<<<<<<<<<<<<<<<<<<<<<<<<<<<//

   => Loading Basis Set <=

    Name: PCSEG-0
    Role: ORBITAL
    Keyword: BASIS
    atoms 1, 4, 7, 10     entry C          line    71 file /opt/psi/4/master/share/psi4/basis/pcseg-0.gbs 
    atoms 2-3, 5-6, 8, 11 entry H          line    13 file /opt/psi/4/master/share/psi4/basis/pcseg-0.gbs 
    atoms 9, 12           entry O          line   103 file /opt/psi/4/master/share/psi4/basis/pcseg-0.gbs 


         ---------------------------------------------------------
                           SCF Castup computation                  
         ---------------------------------------------------------
                                   SCF
               by Justin Turney, Rob Parrish, Andy Simmonett
                          and Daniel G. A. Smith
                              RHF Reference
                        4 Threads,    500 MiB Core
         ---------------------------------------------------------

  ==> Geometry <==

    Molecular point group: c1
    Full point group: C1

    Geometry (in Angstrom), charge = 0, multiplicity = 1:

       Center              X                  Y                   Z               Mass       
    ------------   -----------------  -----------------  -----------------  -----------------
         C           -1.174199517890    -0.774961658783    -0.000122119707    12.000000000000
         H           -1.619191780690    -1.211086467183    -0.891051837007     1.007825032230
         H           -1.619266333190    -1.211279077683     0.890674642893     1.007825032230
         C           -1.174315833390     0.774780790217     0.000039360393    12.000000000000
         H           -1.619438560890     1.210840422117     0.890934646993     1.007825032230
         H           -1.619393466790     1.211029631617    -0.893213869075     1.007825032230
         C            0.352869780268     0.922222840182     0.000222724573    12.000000000000
         H            0.838734018843     1.892355543719     0.000306853844     1.007825032230
         O            0.767273659478     0.000208408356    -1.027310963344    15.994914619570
         C            0.353009321024    -0.922168538825    -0.000040217571    12.000000000000
         H            0.839025827389    -1.892224238731    -0.000241571992     1.007825032230
         O            0.767509261114    -0.000090505730     1.027399393812    15.994914619570

  Running in c1 symmetry.

  Rotational constants: A =      0.19851  B =      0.16228  C =      0.14676 [cm^-1]
  Rotational constants: A =   5951.32800  B =   4865.10872  C =   4399.89589 [MHz]
  Nuclear repulsion =  257.001870136185971

  Charge       = 0
  Multiplicity = 1
  Electrons    = 46
  Nalpha       = 23
  Nbeta        = 23

  ==> Algorithm <==

  SCF Algorithm Type is DF.
  DIIS enabled.
  MOM disabled.
  Fractional occupation disabled.
  Guess Type is SAD.
  Energy threshold   = 1.00e-10
  Density threshold  = 1.00e-10
  Integral threshold = 0.00e+00

  ==> Primary Basis <==

  Basis Set: PCSEG-0
    Blend: PCSEG-0
    Number of shells: 42
    Number of basis function: 66
    Number of Cartesian functions: 66
    Spherical Harmonics?: true
    Max angular momentum: 1

   => Loading Basis Set <=

    Name: (PCSEG-0 AUX)
    Role: JKFIT
    Keyword: DF_BASIS_SCF
    atoms 1, 4, 7, 10     entry C          line   198 file /opt/psi/4/master/share/psi4/basis/def2-universal-jkfit.gbs 
    atoms 2-3, 5-6, 8, 11 entry H          line    18 file /opt/psi/4/master/share/psi4/basis/def2-universal-jkfit.gbs 
    atoms 9, 12           entry O          line   318 file /opt/psi/4/master/share/psi4/basis/def2-universal-jkfit.gbs 

  ==> Integral Setup <==

  ==> DiskDFJK: Density-Fitted J/K Matrices <==

    J tasked:                  Yes
    K tasked:                  Yes
    wK tasked:                  No
    OpenMP threads:              4
    Integrals threads:           4
    Memory [MiB]:              375
    Algorithm:                Core
    Integral Cache:           NONE
    Schwarz Cutoff:          1E-12
    Fitting Condition:       1E-10

   => Auxiliary Basis Set <=

  Basis Set: (PCSEG-0 AUX)
    Blend: DEF2-UNIVERSAL-JKFIT
    Number of shells: 186
    Number of basis function: 562
    Number of Cartesian functions: 662
    Spherical Harmonics?: true
    Max angular momentum: 4

  Minimum eigenvalue in the overlap matrix is 1.2854316572E-03.
  Reciprocal condition number of the overlap matrix is 2.1232956365E-04.
    Using symmetric orthogonalization.

  ==> Pre-Iterations <==

  SCF Guess: Superposition of Atomic Densities via on-the-fly atomic UHF (no occupation information).

   -------------------------
    Irrep   Nso     Nmo    
   -------------------------
     A         66      66 
   -------------------------
    Total      66      66
   -------------------------

  ==> Iterations <==

                           Total Energy        Delta E     RMS |[F,P]|

   @DF-RHF iter SAD:  -303.69515743275531   -3.03695e+02   0.00000e+00 
   @DF-RHF iter   1:  -303.56577625324798    1.29381e-01   7.23853e-03 DIIS
   @DF-RHF iter   2:  -303.66477766469234   -9.90014e-02   3.96842e-03 DIIS
   @DF-RHF iter   3:  -303.69038394156132   -2.56063e-02   6.19622e-04 DIIS
   @DF-RHF iter   4:  -303.69156861796228   -1.18468e-03   1.96296e-04 DIIS
   @DF-RHF iter   5:  -303.69166424357104   -9.56256e-05   4.10630e-05 DIIS
   @DF-RHF iter   6:  -303.69167183349009   -7.58992e-06   8.38108e-06 DIIS
   @DF-RHF iter   7:  -303.69167223642660   -4.02937e-07   1.69092e-06 DIIS
   @DF-RHF iter   8:  -303.69167225056810   -1.41415e-08   5.42852e-07 DIIS
   @DF-RHF iter   9:  -303.69167225199180   -1.42370e-09   1.09381e-07 DIIS
   @DF-RHF iter  10:  -303.69167225206837   -7.65681e-11   1.90583e-08 DIIS
   @DF-RHF iter  11:  -303.69167225207053   -2.16005e-12   5.65765e-09 DIIS
   @DF-RHF iter  12:  -303.69167225207059   -5.68434e-14   2.37041e-09 DIIS
   @DF-RHF iter  13:  -303.69167225207076   -1.70530e-13   2.27286e-10 DIIS
   @DF-RHF iter  14:  -303.69167225207093   -1.70530e-13   7.58830e-11 DIIS
  Energy and wave function converged.


  ==> Post-Iterations <==

    Orbital Energies [Eh]
    ---------------------

    Doubly Occupied:                                                      

       1A    -20.584543     2A    -20.584474     3A    -11.369625  
       4A    -11.369620     5A    -11.256301     6A    -11.255845  
       7A     -1.537605     8A     -1.313004     9A     -1.091753  
      10A     -1.008888    11A     -0.821763    12A     -0.790128  
      13A     -0.768262    14A     -0.680684    15A     -0.662896  
      16A     -0.658513    17A     -0.552290    18A     -0.534429  
      19A     -0.527379    20A     -0.524440    21A     -0.519404  
      22A     -0.467043    23A     -0.443252  

    Virtual:                                                              

      24A      0.203008    25A      0.231093    26A      0.236090  
      27A      0.242148    28A      0.253156    29A      0.267365  
      30A      0.314307    31A      0.350198    32A      0.350954  
      33A      0.382146    34A      0.406835    35A      0.464628  
      36A      0.570222    37A      0.796366    38A      0.807836  
      39A      0.820983    40A      0.925594    41A      0.932713  
      42A      0.946935    43A      0.949743    44A      1.003362  
      45A      1.005009    46A      1.030120    47A      1.060550  
      48A      1.072089    49A      1.134037    50A      1.148787  
      51A      1.170396    52A      1.173581    53A      1.210590  
      54A      1.237636    55A      1.425210    56A      1.454548  
      57A      1.482471    58A      1.522004    59A      1.691088  
      60A      1.705472    61A      1.927947    62A      1.950904  
      63A      2.140088    64A      2.299070    65A      2.374977  
      66A      2.441132  

    Final Occupation by Irrep:
              A 
    DOCC [    23 ]

  @DF-RHF Final Energy:  -303.69167225207093

   => Energetics <=

    Nuclear Repulsion Energy =            257.0018701361859712
    One-Electron Energy =                -922.7428078992159044
    Two-Electron Energy =                 362.0492655109590032
    Total Energy =                       -303.6916722520709300

Computation Completed

  //>>>>>>>>>>>>>>>>>>>>>>>>>>>>>>>>>>>//
  //                SCF                //
  //<<<<<<<<<<<<<<<<<<<<<<<<<<<<<<<<<<<//

   => Loading Basis Set <=

    Name: HEAVY-AUG-CC-PV(Q+D)Z
    Role: ORBITAL
    Keyword: BASIS
    atoms 1, 4, 7, 10     entry C          line   333 file /opt/psi/4/master/share/psi4/basis/heavy-aug-cc-pv_qpd_z.gbs 
    atoms 2-3, 5-6, 8, 11 entry H          line    86 file /opt/psi/4/master/share/psi4/basis/heavy-aug-cc-pv_qpd_z.gbs 
    atoms 9, 12           entry O          line   453 file /opt/psi/4/master/share/psi4/basis/heavy-aug-cc-pv_qpd_z.gbs 


         ---------------------------------------------------------
                                   SCF
               by Justin Turney, Rob Parrish, Andy Simmonett
                          and Daniel G. A. Smith
                              RHF Reference
                        4 Threads,    500 MiB Core
         ---------------------------------------------------------

  ==> Geometry <==

    Molecular point group: c1
    Full point group: C1

    Geometry (in Angstrom), charge = 0, multiplicity = 1:

       Center              X                  Y                   Z               Mass       
    ------------   -----------------  -----------------  -----------------  -----------------
         C           -1.174199517890    -0.774961658783    -0.000122119707    12.000000000000
         H           -1.619191780690    -1.211086467183    -0.891051837007     1.007825032230
         H           -1.619266333190    -1.211279077683     0.890674642893     1.007825032230
         C           -1.174315833390     0.774780790217     0.000039360393    12.000000000000
         H           -1.619438560890     1.210840422117     0.890934646993     1.007825032230
         H           -1.619393466790     1.211029631617    -0.893213869075     1.007825032230
         C            0.352869780268     0.922222840182     0.000222724573    12.000000000000
         H            0.838734018843     1.892355543719     0.000306853844     1.007825032230
         O            0.767273659478     0.000208408356    -1.027310963344    15.994914619570
         C            0.353009321024    -0.922168538825    -0.000040217571    12.000000000000
         H            0.839025827389    -1.892224238731    -0.000241571992     1.007825032230
         O            0.767509261114    -0.000090505730     1.027399393812    15.994914619570

  Running in c1 symmetry.

  Rotational constants: A =      0.19851  B =      0.16228  C =      0.14676 [cm^-1]
  Rotational constants: A =   5951.32800  B =   4865.10872  C =   4399.89589 [MHz]
  Nuclear repulsion =  257.001870136185971

  Charge       = 0
  Multiplicity = 1
  Electrons    = 46
  Nalpha       = 23
  Nbeta        = 23

  ==> Algorithm <==

  SCF Algorithm Type is DF.
  DIIS enabled.
  MOM disabled.
  Fractional occupation disabled.
  Guess Type is SAD.
  Energy threshold   = 1.00e-10
  Density threshold  = 1.00e-10
  Integral threshold = 0.00e+00

  ==> Primary Basis <==

  Basis Set: HEAVY-AUG-CC-PV(Q+D)Z
    Blend: HEAVY-AUG-CC-PV(Q+D)Z
    Number of shells: 180
    Number of basis function: 660
    Number of Cartesian functions: 840
    Spherical Harmonics?: true
    Max angular momentum: 4

   => Loading Basis Set <=

    Name: (HEAVY-AUG-CC-PV(Q+D)Z AUX)
    Role: JKFIT
    Keyword: DF_BASIS_SCF
    atoms 1, 4, 7, 10     entry C          line   214 file /opt/psi/4/master/share/psi4/basis/heavy-aug-cc-pvqz-jkfit.gbs 
    atoms 2-3, 5-6, 8, 11 entry H          line   116 file /opt/psi/4/master/share/psi4/basis/heavy-aug-cc-pvqz-jkfit.gbs 
    atoms 9, 12           entry O          line   354 file /opt/psi/4/master/share/psi4/basis/heavy-aug-cc-pvqz-jkfit.gbs 


  Computing basis projection from PCSEG-0 to HEAVY-AUG-CC-PV(Q+D)Z

  ==> Integral Setup <==

  ==> DiskDFJK: Density-Fitted J/K Matrices <==

    J tasked:                  Yes
    K tasked:                  Yes
    wK tasked:                  No
    OpenMP threads:              4
    Integrals threads:           4
    Memory [MiB]:              375
    Algorithm:                Disk
    Integral Cache:           NONE
    Schwarz Cutoff:          1E-12
    Fitting Condition:       1E-10

   => Auxiliary Basis Set <=

  Basis Set: (HEAVY-AUG-CC-PV(Q+D)Z AUX)
    Blend: HEAVY-AUG-CC-PVQZ-JKFIT
    Number of shells: 282
    Number of basis function: 1158
    Number of Cartesian functions: 1584
    Spherical Harmonics?: true
    Max angular momentum: 5

  Minimum eigenvalue in the overlap matrix is 1.0915684127E-06.
  Reciprocal condition number of the overlap matrix is 7.0001707208E-08.
    Using symmetric orthogonalization.

  ==> Pre-Iterations <==

  SCF Guess: Orbitals guess was supplied from a previous computation.

   -------------------------
    Irrep   Nso     Nmo    
   -------------------------
     A        660     660 
   -------------------------
    Total     660     660
   -------------------------

  ==> Iterations <==

                           Total Energy        Delta E     RMS |[F,P]|

   @DF-RHF iter   0:  -304.22236210415565   -3.04222e+02   4.48092e-03 
   @DF-RHF iter   1:  -304.73369159567142   -5.11329e-01   3.36626e-04 DIIS
   @DF-RHF iter   2:  -304.74972656984733   -1.60350e-02   1.53717e-04 DIIS
   @DF-RHF iter   3:  -304.75360149063226   -3.87492e-03   2.81255e-05 DIIS
   @DF-RHF iter   4:  -304.75387864306055   -2.77152e-04   8.46135e-06 DIIS
   @DF-RHF iter   5:  -304.75390094247985   -2.22994e-05   3.57845e-06 DIIS
   @DF-RHF iter   6:  -304.75390475073647   -3.80826e-06   8.40649e-07 DIIS
   @DF-RHF iter   7:  -304.75390505954965   -3.08813e-07   1.79509e-07 DIIS
   @DF-RHF iter   8:  -304.75390507461395   -1.50643e-08   4.58553e-08 DIIS
   @DF-RHF iter   9:  -304.75390507570734   -1.09338e-09   1.49414e-08 DIIS
   @DF-RHF iter  10:  -304.75390507579419   -8.68567e-11   3.82619e-09 DIIS
   @DF-RHF iter  11:  -304.75390507580312   -8.92442e-12   9.80808e-10 DIIS
   @DF-RHF iter  12:  -304.75390507580448   -1.36424e-12   2.82364e-10 DIIS
   @DF-RHF iter  13:  -304.75390507580460   -1.13687e-13   4.64925e-11 DIIS
  Energy and wave function converged.


  ==> Post-Iterations <==

    Orbital Energies [Eh]
    ---------------------

    Doubly Occupied:                                                      

       1A    -20.565204     2A    -20.565152     3A    -11.348556  
       4A    -11.348529     5A    -11.236764     6A    -11.236151  
       7A     -1.490878     8A     -1.292251     9A     -1.067367  
      10A     -0.987899    11A     -0.810142    12A     -0.789477  
      13A     -0.746593    14A     -0.672453    15A     -0.651333  
      16A     -0.646489    17A     -0.534304    18A     -0.524571  
      19A     -0.519472    20A     -0.512078    21A     -0.510026  
      22A     -0.459742    23A     -0.433699  

    Virtual:                                                              

      24A      0.041416    25A      0.042858    26A      0.050667  
      27A      0.062620    28A      0.063926    29A      0.079820  
      30A      0.080143    31A      0.083434    32A      0.101415  
      33A      0.110251    34A      0.111672    35A      0.112246  
      36A      0.139346    37A      0.151647    38A      0.166312  
      39A      0.171436    40A      0.178451    41A      0.178824  
      42A      0.188830    43A      0.188966    44A      0.199059  
      45A      0.207253    46A      0.226478    47A      0.227209  
      48A      0.229601    49A      0.257260    50A      0.260921  
      51A      0.270287    52A      0.270841    53A      0.271808  
      54A      0.286575    55A      0.288123    56A      0.291037  
      57A      0.301097    58A      0.316672    59A      0.320015  
      60A      0.325022    61A      0.333727    62A      0.337620  
      63A      0.355681    64A      0.358151    65A      0.369556  
      66A      0.380967    67A      0.388150    68A      0.389561  
      69A      0.391522    70A      0.391710    71A      0.395730  
      72A      0.398865    73A      0.412324    74A      0.420386  
      75A      0.420614    76A      0.440260    77A      0.453054  
      78A      0.456212    79A      0.462778    80A      0.494994  
      81A      0.515249    82A      0.518843    83A      0.522768  
      84A      0.528458    85A      0.550763    86A      0.571884  
      87A      0.574230    88A      0.585310    89A      0.589219  
      90A      0.598574    91A      0.600059    92A      0.613177  
      93A      0.629101    94A      0.641269    95A      0.653789  
      96A      0.659997    97A      0.684935    98A      0.688980  
      99A      0.695765   100A      0.704743   101A      0.716148  
     102A      0.716686   103A      0.732370   104A      0.743534  
     105A      0.757810   106A      0.764551   107A      0.789979  
     108A      0.790445   109A      0.794290   110A      0.795428  
     111A      0.827239   112A      0.832040   113A      0.833141  
     114A      0.849261   115A      0.860825   116A      0.875703  
     117A      0.884451   118A      0.897002   119A      0.920017  
     120A      0.938756   121A      0.947607   122A      0.957839  
     123A      0.961173   124A      0.988481   125A      1.002223  
     126A      1.010158   127A      1.011331   128A      1.015991  
     129A      1.033994   130A      1.035440   131A      1.046708  
     132A      1.062526   133A      1.070017   134A      1.075554  
     135A      1.096271   136A      1.114719   137A      1.128851  
     138A      1.140199   139A      1.155024   140A      1.159109  
     141A      1.160269   142A      1.166446   143A      1.168839  
     144A      1.175869   145A      1.191234   146A      1.198109  
     147A      1.208943   148A      1.221979   149A      1.229374  
     150A      1.234513   151A      1.238478   152A      1.239457  
     153A      1.244938   154A      1.276333   155A      1.276861  
     156A      1.287809   157A      1.287986   158A      1.306479  
     159A      1.314728   160A      1.327792   161A      1.370656  
     162A      1.371162   163A      1.407993   164A      1.408929  
     165A      1.437138   166A      1.442677   167A      1.458824  
     168A      1.469731   169A      1.474931   170A      1.485644  
     171A      1.491213   172A      1.508321   173A      1.525282  
     174A      1.534851   175A      1.543853   176A      1.593333  
     177A      1.594343   178A      1.618300   179A      1.620316  
     180A      1.625542   181A      1.626486   182A      1.647800  
     183A      1.682871   184A      1.687355   185A      1.699141  
     186A      1.723677   187A      1.728448   188A      1.731051  
     189A      1.757427   190A      1.775782   191A      1.776356  
     192A      1.815267   193A      1.865804   194A      1.870707  
     195A      1.885969   196A      1.900966   197A      1.911944  
     198A      1.923982   199A      1.960897   200A      1.968355  
     201A      1.996842   202A      1.997277   203A      2.018135  
     204A      2.026397   205A      2.026550   206A      2.028272  
     207A      2.032941   208A      2.039817   209A      2.044221  
     210A      2.106830   211A      2.116182   212A      2.125243  
     213A      2.141933   214A      2.143441   215A      2.174118  
     216A      2.187863   217A      2.188172   218A      2.209203  
     219A      2.249283   220A      2.258709   221A      2.265926  
     222A      2.293551   223A      2.293775   224A      2.306426  
     225A      2.335771   226A      2.341500   227A      2.359068  
     228A      2.363282   229A      2.366708   230A      2.373398  
     231A      2.389621   232A      2.395680   233A      2.403085  
     234A      2.418629   235A      2.441415   236A      2.442411  
     237A      2.462806   238A      2.485270   239A      2.492330  
     240A      2.517405   241A      2.526001   242A      2.533186  
     243A      2.548514   244A      2.559895   245A      2.584271  
     246A      2.587498   247A      2.621257   248A      2.626364  
     249A      2.633859   250A      2.644911   251A      2.660491  
     252A      2.682296   253A      2.705813   254A      2.713877  
     255A      2.729104   256A      2.730733   257A      2.751213  
     258A      2.763431   259A      2.763856   260A      2.801407  
     261A      2.803242   262A      2.812024   263A      2.831927  
     264A      2.858293   265A      2.866318   266A      2.918969  
     267A      2.935298   268A      2.940759   269A      2.966451  
     270A      2.974678   271A      2.986859   272A      2.986896  
     273A      3.008864   274A      3.031315   275A      3.041198  
     276A      3.048667   277A      3.074654   278A      3.076299  
     279A      3.083877   280A      3.104028   281A      3.109697  
     282A      3.136450   283A      3.142871   284A      3.153233  
     285A      3.169805   286A      3.187238   287A      3.222396  
     288A      3.247860   289A      3.259366   290A      3.267870  
     291A      3.288199   292A      3.292588   293A      3.320228  
     294A      3.362894   295A      3.366876   296A      3.394678  
     297A      3.398113   298A      3.402720   299A      3.431192  
     300A      3.452123   301A      3.464575   302A      3.474021  
     303A      3.501512   304A      3.523577   305A      3.535787  
     306A      3.549027   307A      3.571782   308A      3.598071  
     309A      3.609625   310A      3.618192   311A      3.635786  
     312A      3.661312   313A      3.690697   314A      3.706411  
     315A      3.716257   316A      3.746790   317A      3.752398  
     318A      3.757194   319A      3.805206   320A      3.834613  
     321A      3.843243   322A      3.843910   323A      3.872478  
     324A      3.907881   325A      3.909206   326A      3.916882  
     327A      3.950252   328A      3.962780   329A      3.981714  
     330A      4.039536   331A      4.041314   332A      4.047531  
     333A      4.060961   334A      4.084983   335A      4.098845  
     336A      4.119932   337A      4.134446   338A      4.156843  
     339A      4.173048   340A      4.202696   341A      4.205747  
     342A      4.217723   343A      4.237940   344A      4.243719  
     345A      4.273174   346A      4.292819   347A      4.317230  
     348A      4.331410   349A      4.336424   350A      4.357177  
     351A      4.406053   352A      4.426942   353A      4.439497  
     354A      4.451871   355A      4.459493   356A      4.488912  
     357A      4.497358   358A      4.511877   359A      4.516963  
     360A      4.541127   361A      4.568916   362A      4.594106  
     363A      4.627525   364A      4.652611   365A      4.669570  
     366A      4.691608   367A      4.696398   368A      4.698108  
     369A      4.718371   370A      4.736479   371A      4.749255  
     372A      4.761133   373A      4.787685   374A      4.823097  
     375A      4.823501   376A      4.826038   377A      4.843784  
     378A      4.846172   379A      4.901043   380A      4.942389  
     381A      4.976570   382A      5.000288   383A      5.000526  
     384A      5.021145   385A      5.058696   386A      5.122089  
     387A      5.154821   388A      5.163845   389A      5.182743  
     390A      5.237063   391A      5.244668   392A      5.253113  
     393A      5.276942   394A      5.289628   395A      5.304712  
     396A      5.341912   397A      5.357547   398A      5.374607  
     399A      5.407199   400A      5.488739   401A      5.512677  
     402A      5.555279   403A      5.582345   404A      5.627026  
     405A      5.646985   406A      5.649487   407A      5.669224  
     408A      5.782258   409A      5.821888   410A      5.828654  
     411A      5.837579   412A      5.897825   413A      5.973101  
     414A      6.031133   415A      6.102152   416A      6.137688  
     417A      6.192453   418A      6.214265   419A      6.227353  
     420A      6.236668   421A      6.292501   422A      6.335152  
     423A      6.338034   424A      6.345829   425A      6.366712  
     426A      6.397949   427A      6.417516   428A      6.458601  
     429A      6.490984   430A      6.495173   431A      6.510623  
     432A      6.519058   433A      6.530899   434A      6.576926  
     435A      6.585901   436A      6.611912   437A      6.638330  
     438A      6.643212   439A      6.656106   440A      6.679548  
     441A      6.699816   442A      6.700008   443A      6.717483  
     444A      6.748159   445A      6.765582   446A      6.781794  
     447A      6.814186   448A      6.818746   449A      6.855445  
     450A      6.885014   451A      6.912544   452A      6.914951  
     453A      6.921431   454A      6.925350   455A      6.937706  
     456A      6.975688   457A      6.988036   458A      7.010493  
     459A      7.039352   460A      7.091909   461A      7.100824  
     462A      7.104542   463A      7.133890   464A      7.152236  
     465A      7.178965   466A      7.192771   467A      7.195353  
     468A      7.218667   469A      7.222768   470A      7.248152  
     471A      7.275923   472A      7.304399   473A      7.352698  
     474A      7.359890   475A      7.365295   476A      7.418199  
     477A      7.429334   478A      7.436579   479A      7.468412  
     480A      7.528207   481A      7.539620   482A      7.583924  
     483A      7.599701   484A      7.603712   485A      7.635554  
     486A      7.707267   487A      7.729946   488A      7.741715  
     489A      7.751009   490A      7.782585   491A      7.802358  
     492A      7.832705   493A      7.840789   494A      7.842639  
     495A      7.916596   496A      7.936652   497A      7.942414  
     498A      7.986468   499A      7.995444   500A      8.013570  
     501A      8.014507   502A      8.042339   503A      8.083888  
     504A      8.104970   505A      8.145803   506A      8.154181  
     507A      8.191062   508A      8.191961   509A      8.321796  
     510A      8.326005   511A      8.334819   512A      8.351657  
     513A      8.377317   514A      8.408242   515A      8.412620  
     516A      8.477487   517A      8.495633   518A      8.496629  
     519A      8.531765   520A      8.550178   521A      8.557707  
     522A      8.585979   523A      8.609732   524A      8.610851  
     525A      8.648924   526A      8.686098   527A      8.706447  
     528A      8.715608   529A      8.761463   530A      8.813601  
     531A      8.824706   532A      8.837414   533A      8.840657  
     534A      8.841003   535A      8.879508   536A      8.899448  
     537A      8.903570   538A      8.935982   539A      8.956682  
     540A      8.993009   541A      9.015661   542A      9.026948  
     543A      9.033288   544A      9.047794   545A      9.055512  
     546A      9.084589   547A      9.108151   548A      9.117055  
     549A      9.170883   550A      9.177005   551A      9.188360  
     552A      9.233042   553A      9.247100   554A      9.313903  
     555A      9.343110   556A      9.348864   557A      9.351109  
     558A      9.365428   559A      9.400428   560A      9.452966  
     561A      9.497303   562A      9.512977   563A      9.525086  
     564A      9.555903   565A      9.647489   566A      9.658281  
     567A      9.726354   568A      9.754331   569A      9.768776  
     570A      9.790296   571A      9.833599   572A      9.898835  
     573A      9.917999   574A      9.930292   575A      9.957552  
     576A     10.066001   577A     10.115819   578A     10.231340  
     579A     10.241491   580A     10.252729   581A     10.293081  
     582A     10.414903   583A     10.475383   584A     10.505377  
     585A     10.507223   586A     10.592979   587A     10.626426  
     588A     10.642584   589A     10.779434   590A     10.791569  
     591A     10.820533   592A     10.823396   593A     10.968630  
     594A     10.999008   595A     11.064120   596A     11.071384  
     597A     11.101602   598A     11.105149   599A     11.130683  
     600A     11.151004   601A     11.162278   602A     11.209821  
     603A     11.225307   604A     11.251354   605A     11.334159  
     606A     11.383406   607A     11.449049   608A     11.454554  
     609A     11.494283   610A     11.498170   611A     11.508238  
     612A     11.542433   613A     11.619449   614A     11.643532  
     615A     11.722002   616A     11.813701   617A     11.819931  
     618A     11.847566   619A     11.885600   620A     11.907968  
     621A     12.198535   622A     12.253610   623A     12.316547  
     624A     12.378347   625A     12.640966   626A     12.651062  
     627A     12.824894   628A     12.870030   629A     12.964528  
     630A     13.027953   631A     13.075367   632A     13.076087  
     633A     13.181449   634A     13.233621   635A     13.252008  
     636A     13.353853   637A     13.357598   638A     13.385689  
     639A     13.420505   640A     13.512328   641A     13.523175  
     642A     13.532862   643A     13.717718   644A     13.736684  
     645A     13.789162   646A     13.813526   647A     13.846810  
     648A     13.907883   649A     13.968968   650A     13.979438  
     651A     14.123366   652A     14.155109   653A     14.690372  
     654A     14.883995   655A     27.255476   656A     27.849063  
     657A     28.037961   658A     28.604399   659A     44.797069  
     660A     45.695992  

    Final Occupation by Irrep:
              A 
    DOCC [    23 ]

  @DF-RHF Final Energy:  -304.75390507580460

   => Energetics <=

    Nuclear Repulsion Energy =            257.0018701361859712
    One-Electron Energy =                -925.6132933438334476
    Two-Electron Energy =                 363.8575181318428804
    Total Energy =                       -304.7539050758045960

Computation Completed


Properties will be evaluated at   0.000000,   0.000000,   0.000000 [a0]

Properties computed using the SCF density matrix

  Nuclear Dipole Moment: [e a0]
     X:    -4.4920      Y:    -0.0003      Z:    -0.0024

  Electronic Dipole Moment: [e a0]
     X:     3.7206      Y:    -0.0001      Z:     0.0028

  Dipole Moment: [e a0]
     X:    -0.7714      Y:    -0.0005      Z:     0.0003     Total:     0.7714

  Dipole Moment: [D]
     X:    -1.9607      Y:    -0.0012      Z:     0.0008     Total:     1.9607


*** tstop() called on n067 at Mon Jun  8 13:44:28 2020
Module time:
	user time   =     135.47 seconds =       2.26 minutes
	system time =       6.33 seconds =       0.11 minutes
	total time  =         38 seconds =       0.63 minutes
Total time:
	user time   =     135.47 seconds =       2.26 minutes
	system time =       6.33 seconds =       0.11 minutes
	total time  =         38 seconds =       0.63 minutes

*** tstart() called on n067
*** at Mon Jun  8 13:44:28 2020


  //>>>>>>>>>>>>>>>>>>>>>>>>>>>>>>>>>>>//
  //               DFMP2               //
  //<<<<<<<<<<<<<<<<<<<<<<<<<<<<<<<<<<<//

   => Loading Basis Set <=

    Name: (HEAVY-AUG-CC-PV(Q+D)Z AUX)
    Role: RIFIT
    Keyword: DF_BASIS_MP2
    atoms 1, 4, 7, 10     entry C          line   180 file /opt/psi/4/master/share/psi4/basis/heavy-aug-cc-pvqz-ri.gbs 
    atoms 2-3, 5-6, 8, 11 entry H          line    44 file /opt/psi/4/master/share/psi4/basis/heavy-aug-cc-pvqz-ri.gbs 
    atoms 9, 12           entry O          line   328 file /opt/psi/4/master/share/psi4/basis/heavy-aug-cc-pvqz-ri.gbs 

	 --------------------------------------------------------
	                          DF-MP2                         
	      2nd-Order Density-Fitted Moller-Plesset Theory     
	              RMP2 Wavefunction,   4 Threads             
	                                                         
	        Rob Parrish, Justin Turney, Andy Simmonett,      
	           Ed Hohenstein, and C. David Sherrill          
	 --------------------------------------------------------

   => Auxiliary Basis Set <=

  Basis Set: (HEAVY-AUG-CC-PV(Q+D)Z AUX)
    Blend: HEAVY-AUG-CC-PVQZ-RI
    Number of shells: 306
    Number of basis function: 1338
    Number of Cartesian functions: 1842
    Spherical Harmonics?: true
    Max angular momentum: 5

	 --------------------------------------------------------
	                 NBF =   660, NAUX =  1338
	 --------------------------------------------------------
	   CLASS    FOCC     OCC    AOCC    AVIR     VIR    FVIR
	   PAIRS       6      23      17     637     637       0
	 --------------------------------------------------------

	-----------------------------------------------------------
	 ==================> DF-MP2 Energies <==================== 
	-----------------------------------------------------------
	 Reference Energy          =    -304.7539050758045960 [Eh]
	 Singles Energy            =      -0.0000000000000000 [Eh]
	 Same-Spin Energy          =      -0.2941272959242307 [Eh]
	 Opposite-Spin Energy      =      -0.9238564415948060 [Eh]
	 Correlation Energy        =      -1.2179837375190368 [Eh]
	 Total Energy              =    -305.9718888133236305 [Eh]
	-----------------------------------------------------------
	 ================> DF-SCS-MP2 Energies <================== 
	-----------------------------------------------------------
	 SCS Same-Spin Scale       =       0.3333333333333333 [-]
	 SCS Opposite-Spin Scale   =       1.2000000000000000 [-]
	 SCS Same-Spin Energy      =      -0.0980424319747436 [Eh]
	 SCS Opposite-Spin Energy  =      -1.1086277299137670 [Eh]
	 SCS Correlation Energy    =      -1.2066701618885105 [Eh]
	 SCS Total Energy          =    -305.9605752376930923 [Eh]
	-----------------------------------------------------------


*** tstop() called on n067 at Mon Jun  8 13:44:35 2020
Module time:
	user time   =      28.53 seconds =       0.48 minutes
	system time =       0.35 seconds =       0.01 minutes
	total time  =          7 seconds =       0.12 minutes
Total time:
	user time   =     164.01 seconds =       2.73 minutes
	system time =       6.68 seconds =       0.11 minutes
	total time  =         45 seconds =       0.75 minutes

========================OPTAVC-XTPL==========================

MP2/QZ correlation energy -1.2179837375190368
SCF/QZ reference energy -304.7539050758046


=============================================================

Scratch directory: /tmp/

Scratch directory: /tmp/
    SCF Algorithm Type (re)set to DF.

*** tstart() called on n067
*** at Mon Jun  8 13:44:35 2020


  //>>>>>>>>>>>>>>>>>>>>>>>>>>>>>>>>>>>//
  //      Guess SCF, pcseg-0 Basis     //
  //<<<<<<<<<<<<<<<<<<<<<<<<<<<<<<<<<<<//

   => Loading Basis Set <=

    Name: PCSEG-0
    Role: ORBITAL
    Keyword: BASIS
    atoms 1, 4, 7, 10     entry C          line    71 file /opt/psi/4/master/share/psi4/basis/pcseg-0.gbs 
    atoms 2-3, 5-6, 8, 11 entry H          line    13 file /opt/psi/4/master/share/psi4/basis/pcseg-0.gbs 
    atoms 9, 12           entry O          line   103 file /opt/psi/4/master/share/psi4/basis/pcseg-0.gbs 


         ---------------------------------------------------------
                           SCF Castup computation                  
         ---------------------------------------------------------
                                   SCF
               by Justin Turney, Rob Parrish, Andy Simmonett
                          and Daniel G. A. Smith
                              RHF Reference
                        4 Threads,    500 MiB Core
         ---------------------------------------------------------

  ==> Geometry <==

    Molecular point group: c1
    Full point group: C1

    Geometry (in Angstrom), charge = 0, multiplicity = 1:

       Center              X                  Y                   Z               Mass       
    ------------   -----------------  -----------------  -----------------  -----------------
         C           -1.174199517890    -0.774961658783    -0.000122119707    12.000000000000
         H           -1.619191780690    -1.211086467183    -0.891051837007     1.007825032230
         H           -1.619266333190    -1.211279077683     0.890674642893     1.007825032230
         C           -1.174315833390     0.774780790217     0.000039360393    12.000000000000
         H           -1.619438560890     1.210840422117     0.890934646993     1.007825032230
         H           -1.619393466790     1.211029631617    -0.893213869075     1.007825032230
         C            0.352869780268     0.922222840182     0.000222724573    12.000000000000
         H            0.838734018843     1.892355543719     0.000306853844     1.007825032230
         O            0.767273659478     0.000208408356    -1.027310963344    15.994914619570
         C            0.353009321024    -0.922168538825    -0.000040217571    12.000000000000
         H            0.839025827389    -1.892224238731    -0.000241571992     1.007825032230
         O            0.767509261114    -0.000090505730     1.027399393812    15.994914619570

  Running in c1 symmetry.

  Rotational constants: A =      0.19851  B =      0.16228  C =      0.14676 [cm^-1]
  Rotational constants: A =   5951.32800  B =   4865.10872  C =   4399.89589 [MHz]
  Nuclear repulsion =  257.001870136185971

  Charge       = 0
  Multiplicity = 1
  Electrons    = 46
  Nalpha       = 23
  Nbeta        = 23

  ==> Algorithm <==

  SCF Algorithm Type is DF.
  DIIS enabled.
  MOM disabled.
  Fractional occupation disabled.
  Guess Type is SAD.
  Energy threshold   = 1.00e-10
  Density threshold  = 1.00e-10
  Integral threshold = 0.00e+00

  ==> Primary Basis <==

  Basis Set: PCSEG-0
    Blend: PCSEG-0
    Number of shells: 42
    Number of basis function: 66
    Number of Cartesian functions: 66
    Spherical Harmonics?: true
    Max angular momentum: 1

   => Loading Basis Set <=

    Name: (PCSEG-0 AUX)
    Role: JKFIT
    Keyword: DF_BASIS_SCF
    atoms 1, 4, 7, 10     entry C          line   198 file /opt/psi/4/master/share/psi4/basis/def2-universal-jkfit.gbs 
    atoms 2-3, 5-6, 8, 11 entry H          line    18 file /opt/psi/4/master/share/psi4/basis/def2-universal-jkfit.gbs 
    atoms 9, 12           entry O          line   318 file /opt/psi/4/master/share/psi4/basis/def2-universal-jkfit.gbs 

  ==> Integral Setup <==

  ==> DiskDFJK: Density-Fitted J/K Matrices <==

    J tasked:                  Yes
    K tasked:                  Yes
    wK tasked:                  No
    OpenMP threads:              4
    Integrals threads:           4
    Memory [MiB]:              375
    Algorithm:                Core
    Integral Cache:           NONE
    Schwarz Cutoff:          1E-12
    Fitting Condition:       1E-10

   => Auxiliary Basis Set <=

  Basis Set: (PCSEG-0 AUX)
    Blend: DEF2-UNIVERSAL-JKFIT
    Number of shells: 186
    Number of basis function: 562
    Number of Cartesian functions: 662
    Spherical Harmonics?: true
    Max angular momentum: 4

  Minimum eigenvalue in the overlap matrix is 1.2854316572E-03.
  Reciprocal condition number of the overlap matrix is 2.1232956365E-04.
    Using symmetric orthogonalization.

  ==> Pre-Iterations <==

  SCF Guess: Superposition of Atomic Densities via on-the-fly atomic UHF (no occupation information).

   -------------------------
    Irrep   Nso     Nmo    
   -------------------------
     A         66      66 
   -------------------------
    Total      66      66
   -------------------------

  ==> Iterations <==

                           Total Energy        Delta E     RMS |[F,P]|

   @DF-RHF iter SAD:  -303.69515743297734   -3.03695e+02   0.00000e+00 
   @DF-RHF iter   1:  -303.56577625346739    1.29381e-01   7.23853e-03 DIIS
   @DF-RHF iter   2:  -303.66477766491130   -9.90014e-02   3.96842e-03 DIIS
   @DF-RHF iter   3:  -303.69038394177915   -2.56063e-02   6.19622e-04 DIIS
   @DF-RHF iter   4:  -303.69156861818038   -1.18468e-03   1.96296e-04 DIIS
   @DF-RHF iter   5:  -303.69166424378847   -9.56256e-05   4.10630e-05 DIIS
   @DF-RHF iter   6:  -303.69167183370791   -7.58992e-06   8.38108e-06 DIIS
   @DF-RHF iter   7:  -303.69167223664448   -4.02937e-07   1.69092e-06 DIIS
   @DF-RHF iter   8:  -303.69167225078638   -1.41419e-08   5.42852e-07 DIIS
   @DF-RHF iter   9:  -303.69167225220986   -1.42347e-09   1.09381e-07 DIIS
   @DF-RHF iter  10:  -303.69167225228642   -7.65681e-11   1.90583e-08 DIIS
   @DF-RHF iter  11:  -303.69167225228841   -1.98952e-12   5.65765e-09 DIIS
   @DF-RHF iter  12:  -303.69167225228864   -2.27374e-13   2.37041e-09 DIIS
   @DF-RHF iter  13:  -303.69167225228847    1.70530e-13   2.27286e-10 DIIS
   @DF-RHF iter  14:  -303.69167225228853   -5.68434e-14   7.58825e-11 DIIS
  Energy and wave function converged.


  ==> Post-Iterations <==

    Orbital Energies [Eh]
    ---------------------

    Doubly Occupied:                                                      

       1A    -20.584543     2A    -20.584474     3A    -11.369625  
       4A    -11.369620     5A    -11.256301     6A    -11.255845  
       7A     -1.537605     8A     -1.313004     9A     -1.091753  
      10A     -1.008888    11A     -0.821763    12A     -0.790128  
      13A     -0.768262    14A     -0.680684    15A     -0.662896  
      16A     -0.658513    17A     -0.552290    18A     -0.534429  
      19A     -0.527379    20A     -0.524440    21A     -0.519404  
      22A     -0.467043    23A     -0.443252  

    Virtual:                                                              

      24A      0.203008    25A      0.231093    26A      0.236090  
      27A      0.242148    28A      0.253156    29A      0.267365  
      30A      0.314307    31A      0.350198    32A      0.350954  
      33A      0.382146    34A      0.406835    35A      0.464628  
      36A      0.570222    37A      0.796366    38A      0.807836  
      39A      0.820983    40A      0.925594    41A      0.932713  
      42A      0.946935    43A      0.949743    44A      1.003362  
      45A      1.005009    46A      1.030120    47A      1.060550  
      48A      1.072089    49A      1.134037    50A      1.148787  
      51A      1.170396    52A      1.173581    53A      1.210590  
      54A      1.237636    55A      1.425210    56A      1.454548  
      57A      1.482471    58A      1.522004    59A      1.691088  
      60A      1.705472    61A      1.927947    62A      1.950904  
      63A      2.140088    64A      2.299070    65A      2.374977  
      66A      2.441132  

    Final Occupation by Irrep:
              A 
    DOCC [    23 ]

  @DF-RHF Final Energy:  -303.69167225228853

   => Energetics <=

    Nuclear Repulsion Energy =            257.0018701361859712
    One-Electron Energy =                -922.7428078993208374
    Two-Electron Energy =                 362.0492655108463396
    Total Energy =                       -303.6916722522885266

Computation Completed

  //>>>>>>>>>>>>>>>>>>>>>>>>>>>>>>>>>>>//
  //                SCF                //
  //<<<<<<<<<<<<<<<<<<<<<<<<<<<<<<<<<<<//

   => Loading Basis Set <=

    Name: HEAVY-AUG-CC-PV(T+D)Z
    Role: ORBITAL
    Keyword: BASIS
    atoms 1, 4, 7, 10     entry C          line   273 file /opt/psi/4/master/share/psi4/basis/heavy-aug-cc-pv_tpd_z.gbs 
    atoms 2-3, 5-6, 8, 11 entry H          line    86 file /opt/psi/4/master/share/psi4/basis/heavy-aug-cc-pv_tpd_z.gbs 
    atoms 9, 12           entry O          line   365 file /opt/psi/4/master/share/psi4/basis/heavy-aug-cc-pv_tpd_z.gbs 


         ---------------------------------------------------------
                                   SCF
               by Justin Turney, Rob Parrish, Andy Simmonett
                          and Daniel G. A. Smith
                              RHF Reference
                        4 Threads,    500 MiB Core
         ---------------------------------------------------------

  ==> Geometry <==

    Molecular point group: c1
    Full point group: C1

    Geometry (in Angstrom), charge = 0, multiplicity = 1:

       Center              X                  Y                   Z               Mass       
    ------------   -----------------  -----------------  -----------------  -----------------
         C           -1.174199517890    -0.774961658783    -0.000122119707    12.000000000000
         H           -1.619191780690    -1.211086467183    -0.891051837007     1.007825032230
         H           -1.619266333190    -1.211279077683     0.890674642893     1.007825032230
         C           -1.174315833390     0.774780790217     0.000039360393    12.000000000000
         H           -1.619438560890     1.210840422117     0.890934646993     1.007825032230
         H           -1.619393466790     1.211029631617    -0.893213869075     1.007825032230
         C            0.352869780268     0.922222840182     0.000222724573    12.000000000000
         H            0.838734018843     1.892355543719     0.000306853844     1.007825032230
         O            0.767273659478     0.000208408356    -1.027310963344    15.994914619570
         C            0.353009321024    -0.922168538825    -0.000040217571    12.000000000000
         H            0.839025827389    -1.892224238731    -0.000241571992     1.007825032230
         O            0.767509261114    -0.000090505730     1.027399393812    15.994914619570

  Running in c1 symmetry.

  Rotational constants: A =      0.19851  B =      0.16228  C =      0.14676 [cm^-1]
  Rotational constants: A =   5951.32800  B =   4865.10872  C =   4399.89589 [MHz]
  Nuclear repulsion =  257.001870136185971

  Charge       = 0
  Multiplicity = 1
  Electrons    = 46
  Nalpha       = 23
  Nbeta        = 23

  ==> Algorithm <==

  SCF Algorithm Type is DF.
  DIIS enabled.
  MOM disabled.
  Fractional occupation disabled.
  Guess Type is SAD.
  Energy threshold   = 1.00e-10
  Density threshold  = 1.00e-10
  Integral threshold = 0.00e+00

  ==> Primary Basis <==

  Basis Set: HEAVY-AUG-CC-PV(T+D)Z
    Blend: HEAVY-AUG-CC-PV(T+D)Z
    Number of shells: 120
    Number of basis function: 360
    Number of Cartesian functions: 420
    Spherical Harmonics?: true
    Max angular momentum: 3

   => Loading Basis Set <=

    Name: (HEAVY-AUG-CC-PV(T+D)Z AUX)
    Role: JKFIT
    Keyword: DF_BASIS_SCF
    atoms 1, 4, 7, 10     entry C          line   200 file /opt/psi/4/master/share/psi4/basis/heavy-aug-cc-pvtz-jkfit.gbs 
    atoms 2-3, 5-6, 8, 11 entry H          line   116 file /opt/psi/4/master/share/psi4/basis/heavy-aug-cc-pvtz-jkfit.gbs 
    atoms 9, 12           entry O          line   324 file /opt/psi/4/master/share/psi4/basis/heavy-aug-cc-pvtz-jkfit.gbs 


  Computing basis projection from PCSEG-0 to HEAVY-AUG-CC-PV(T+D)Z

  ==> Integral Setup <==

  ==> DiskDFJK: Density-Fitted J/K Matrices <==

    J tasked:                  Yes
    K tasked:                  Yes
    wK tasked:                  No
    OpenMP threads:              4
    Integrals threads:           4
    Memory [MiB]:              375
    Algorithm:                Disk
    Integral Cache:           NONE
    Schwarz Cutoff:          1E-12
    Fitting Condition:       1E-10

   => Auxiliary Basis Set <=

  Basis Set: (HEAVY-AUG-CC-PV(T+D)Z AUX)
    Blend: HEAVY-AUG-CC-PVTZ-JKFIT
    Number of shells: 240
    Number of basis function: 804
    Number of Cartesian functions: 996
    Spherical Harmonics?: true
    Max angular momentum: 4

  Minimum eigenvalue in the overlap matrix is 5.5153212876E-06.
  Reciprocal condition number of the overlap matrix is 4.0323218069E-07.
    Using symmetric orthogonalization.

  ==> Pre-Iterations <==

  SCF Guess: Orbitals guess was supplied from a previous computation.

   -------------------------
    Irrep   Nso     Nmo    
   -------------------------
     A        360     360 
   -------------------------
    Total     360     360
   -------------------------

  ==> Iterations <==

                           Total Energy        Delta E     RMS |[F,P]|

   @DF-RHF iter   0:  -304.36276642333524   -3.04363e+02   4.15904e-03 
   @DF-RHF iter   1:  -304.71634519805872   -3.53579e-01   5.72571e-04 DIIS
   @DF-RHF iter   2:  -304.73151086775556   -1.51657e-02   2.71886e-04 DIIS
   @DF-RHF iter   3:  -304.73520594445426   -3.69508e-03   4.87408e-05 DIIS
   @DF-RHF iter   4:  -304.73546997482504   -2.64030e-04   1.57988e-05 DIIS
   @DF-RHF iter   5:  -304.73549103914229   -2.10643e-05   6.25352e-06 DIIS
   @DF-RHF iter   6:  -304.73549493872048   -3.89958e-06   1.42032e-06 DIIS
   @DF-RHF iter   7:  -304.73549520426684   -2.65546e-07   3.12887e-07 DIIS
   @DF-RHF iter   8:  -304.73549521850339   -1.42365e-08   7.99804e-08 DIIS
   @DF-RHF iter   9:  -304.73549521944096   -9.37575e-10   2.59841e-08 DIIS
   @DF-RHF iter  10:  -304.73549521952634   -8.53788e-11   6.47829e-09 DIIS
   @DF-RHF iter  11:  -304.73549521953265   -6.30962e-12   1.69204e-09 DIIS
   @DF-RHF iter  12:  -304.73549521953294   -2.84217e-13   4.79262e-10 DIIS
   @DF-RHF iter  13:  -304.73549521953402   -1.08002e-12   7.73098e-11 DIIS
  Energy and wave function converged.


  ==> Post-Iterations <==

    Orbital Energies [Eh]
    ---------------------

    Doubly Occupied:                                                      

       1A    -20.568150     2A    -20.568099     3A    -11.349657  
       4A    -11.349632     5A    -11.237846     6A    -11.237235  
       7A     -1.491685     8A     -1.293048     9A     -1.067617  
      10A     -0.988181    11A     -0.810236    12A     -0.789637  
      13A     -0.746550    14A     -0.672354    15A     -0.651354  
      16A     -0.646340    17A     -0.534228    18A     -0.524415  
      19A     -0.519340    20A     -0.512003    21A     -0.509828  
      22A     -0.459478    23A     -0.433498  

    Virtual:                                                              

      24A      0.050345    25A      0.050968    26A      0.059704  
      27A      0.072060    28A      0.073413    29A      0.092446  
      30A      0.093544    31A      0.096697    32A      0.116603  
      33A      0.126306    34A      0.127403    35A      0.130073  
      36A      0.162104    37A      0.176073    38A      0.195299  
      39A      0.204139    40A      0.206508    41A      0.214105  
      42A      0.220409    43A      0.228362    44A      0.233845  
      45A      0.249355    46A      0.268406    47A      0.268604  
      48A      0.277119    49A      0.295353    50A      0.300756  
      51A      0.312870    52A      0.331217    53A      0.335284  
      54A      0.341785    55A      0.347753    56A      0.356258  
      57A      0.356976    58A      0.362601    59A      0.374756  
      60A      0.397660    61A      0.404399    62A      0.412730  
      63A      0.421292    64A      0.432400    65A      0.446454  
      66A      0.457834    67A      0.465019    68A      0.485328  
      69A      0.492975    70A      0.503882    71A      0.510821  
      72A      0.516667    73A      0.519807    74A      0.527014  
      75A      0.528719    76A      0.543655    77A      0.545922  
      78A      0.580825    79A      0.591987    80A      0.608144  
      81A      0.613193    82A      0.620775    83A      0.653646  
      84A      0.658683    85A      0.673144    86A      0.721931  
      87A      0.735733    88A      0.747649    89A      0.753902  
      90A      0.770289    91A      0.780858    92A      0.791179  
      93A      0.797148    94A      0.815649    95A      0.818553  
      96A      0.828013    97A      0.844037    98A      0.877712  
      99A      0.891361   100A      0.926812   101A      0.928755  
     102A      0.938776   103A      0.946022   104A      0.970365  
     105A      0.985536   106A      0.998624   107A      1.032145  
     108A      1.037143   109A      1.038600   110A      1.060345  
     111A      1.082275   112A      1.096592   113A      1.114035  
     114A      1.120770   115A      1.138235   116A      1.160746  
     117A      1.185508   118A      1.222738   119A      1.247311  
     120A      1.251750   121A      1.261087   122A      1.283335  
     123A      1.321531   124A      1.329831   125A      1.335743  
     126A      1.352878   127A      1.373364   128A      1.383880  
     129A      1.398608   130A      1.403513   131A      1.415046  
     132A      1.446374   133A      1.447580   134A      1.457997  
     135A      1.483373   136A      1.498958   137A      1.505838  
     138A      1.528522   139A      1.546476   140A      1.560420  
     141A      1.581603   142A      1.586270   143A      1.586675  
     144A      1.589041   145A      1.599888   146A      1.654307  
     147A      1.656633   148A      1.670280   149A      1.677082  
     150A      1.683931   151A      1.698373   152A      1.707848  
     153A      1.715592   154A      1.731580   155A      1.735449  
     156A      1.750136   157A      1.752115   158A      1.791794  
     159A      1.799737   160A      1.806888   161A      1.822673  
     162A      1.901697   163A      1.902080   164A      1.930534  
     165A      1.939336   166A      1.949907   167A      1.984897  
     168A      1.990633   169A      2.003104   170A      2.007793  
     171A      2.026898   172A      2.046425   173A      2.055104  
     174A      2.059073   175A      2.150314   176A      2.151528  
     177A      2.209100   178A      2.252300   179A      2.300667  
     180A      2.333042   181A      2.392440   182A      2.401324  
     183A      2.419775   184A      2.443701   185A      2.450991  
     186A      2.472146   187A      2.504427   188A      2.508441  
     189A      2.540867   190A      2.579797   191A      2.628594  
     192A      2.646752   193A      2.682374   194A      2.685908  
     195A      2.723858   196A      2.769241   197A      2.787524  
     198A      2.875383   199A      2.875822   200A      2.891158  
     201A      2.914692   202A      2.921345   203A      2.954061  
     204A      2.959090   205A      2.963928   206A      3.077190  
     207A      3.098260   208A      3.119397   209A      3.127644  
     210A      3.181063   211A      3.187083   212A      3.205043  
     213A      3.215695   214A      3.240631   215A      3.261479  
     216A      3.306269   217A      3.332769   218A      3.408532  
     219A      3.411926   220A      3.414514   221A      3.434612  
     222A      3.441179   223A      3.472015   224A      3.484355  
     225A      3.500830   226A      3.524519   227A      3.538465  
     228A      3.601978   229A      3.626575   230A      3.630660  
     231A      3.666871   232A      3.683124   233A      3.695582  
     234A      3.706303   235A      3.728343   236A      3.730203  
     237A      3.749422   238A      3.816308   239A      3.832531  
     240A      3.842933   241A      3.866163   242A      3.873682  
     243A      3.926654   244A      3.952083   245A      3.959837  
     246A      3.961165   247A      3.964461   248A      4.004124  
     249A      4.018210   250A      4.048731   251A      4.053481  
     252A      4.073665   253A      4.105494   254A      4.111729  
     255A      4.144967   256A      4.163307   257A      4.169887  
     258A      4.180163   259A      4.185699   260A      4.211527  
     261A      4.235167   262A      4.244667   263A      4.257867  
     264A      4.263865   265A      4.267553   266A      4.315328  
     267A      4.343380   268A      4.365729   269A      4.424406  
     270A      4.471025   271A      4.478979   272A      4.481723  
     273A      4.495304   274A      4.510869   275A      4.526545  
     276A      4.551543   277A      4.582813   278A      4.638062  
     279A      4.688016   280A      4.688670   281A      4.701724  
     282A      4.706224   283A      4.730486   284A      4.742849  
     285A      4.755484   286A      4.805818   287A      4.819809  
     288A      4.820718   289A      4.837514   290A      4.885340  
     291A      4.906785   292A      4.956915   293A      4.963363  
     294A      4.964206   295A      5.095012   296A      5.117146  
     297A      5.125079   298A      5.189726   299A      5.193556  
     300A      5.238405   301A      5.265769   302A      5.280795  
     303A      5.394471   304A      5.417141   305A      5.435218  
     306A      5.463279   307A      5.471533   308A      5.580300  
     309A      5.581703   310A      5.595314   311A      5.651702  
     312A      5.703315   313A      5.712244   314A      5.717117  
     315A      5.859928   316A      5.867350   317A      5.897424  
     318A      5.925681   319A      6.059799   320A      6.123336  
     321A      6.140884   322A      6.203790   323A      6.240842  
     324A      6.281062   325A      6.284264   326A      6.347811  
     327A      6.383997   328A      6.492337   329A      6.559098  
     330A      6.901395   331A      6.901438   332A      6.939429  
     333A      6.962626   334A      6.996074   335A      7.024336  
     336A      7.104624   337A      7.128445   338A      7.172206  
     339A      7.189066   340A      7.226144   341A      7.238151  
     342A      7.389190   343A      7.488121   344A      7.587883  
     345A      7.608663   346A      7.634412   347A      7.736823  
     348A      7.793203   349A      7.820795   350A      7.910654  
     351A      8.038103   352A      8.194561   353A      8.219522  
     354A      8.226927   355A     14.244707   356A     15.439833  
     357A     15.553722   358A     15.864697   359A     17.392401  
     360A     18.709645  

    Final Occupation by Irrep:
              A 
    DOCC [    23 ]

  @DF-RHF Final Energy:  -304.73549521953402

   => Energetics <=

    Nuclear Repulsion Energy =            257.0018701361859712
    One-Electron Energy =                -925.5539107622556685
    Two-Electron Energy =                 363.8165454065356812
    Total Energy =                       -304.7354952195340161

Computation Completed


Properties will be evaluated at   0.000000,   0.000000,   0.000000 [a0]

Properties computed using the SCF density matrix

  Nuclear Dipole Moment: [e a0]
     X:    -4.4920      Y:    -0.0003      Z:    -0.0024

  Electronic Dipole Moment: [e a0]
     X:     3.7202      Y:    -0.0001      Z:     0.0028

  Dipole Moment: [e a0]
     X:    -0.7718      Y:    -0.0005      Z:     0.0003     Total:     0.7718

  Dipole Moment: [D]
     X:    -1.9618      Y:    -0.0012      Z:     0.0008     Total:     1.9618


*** tstop() called on n067 at Mon Jun  8 13:44:45 2020
Module time:
	user time   =      34.06 seconds =       0.57 minutes
	system time =       1.65 seconds =       0.03 minutes
	total time  =         10 seconds =       0.17 minutes
Total time:
	user time   =     198.55 seconds =       3.31 minutes
	system time =       8.52 seconds =       0.14 minutes
	total time  =         55 seconds =       0.92 minutes

*** tstart() called on n067
*** at Mon Jun  8 13:44:45 2020


  //>>>>>>>>>>>>>>>>>>>>>>>>>>>>>>>>>>>//
  //               DFMP2               //
  //<<<<<<<<<<<<<<<<<<<<<<<<<<<<<<<<<<<//

   => Loading Basis Set <=

    Name: (HEAVY-AUG-CC-PV(T+D)Z AUX)
    Role: RIFIT
    Keyword: DF_BASIS_MP2
    atoms 1, 4, 7, 10     entry C          line   148 file /opt/psi/4/master/share/psi4/basis/heavy-aug-cc-pvtz-ri.gbs 
    atoms 2-3, 5-6, 8, 11 entry H          line    44 file /opt/psi/4/master/share/psi4/basis/heavy-aug-cc-pvtz-ri.gbs 
    atoms 9, 12           entry O          line   264 file /opt/psi/4/master/share/psi4/basis/heavy-aug-cc-pvtz-ri.gbs 

	 --------------------------------------------------------
	                          DF-MP2                         
	      2nd-Order Density-Fitted Moller-Plesset Theory     
	              RMP2 Wavefunction,   4 Threads             
	                                                         
	        Rob Parrish, Justin Turney, Andy Simmonett,      
	           Ed Hohenstein, and C. David Sherrill          
	 --------------------------------------------------------

   => Auxiliary Basis Set <=

  Basis Set: (HEAVY-AUG-CC-PV(T+D)Z AUX)
    Blend: HEAVY-AUG-CC-PVTZ-RI
    Number of shells: 228
    Number of basis function: 816
    Number of Cartesian functions: 1026
    Spherical Harmonics?: true
    Max angular momentum: 4

	 --------------------------------------------------------
	                 NBF =   360, NAUX =   816
	 --------------------------------------------------------
	   CLASS    FOCC     OCC    AOCC    AVIR     VIR    FVIR
	   PAIRS       6      23      17     337     337       0
	 --------------------------------------------------------

	-----------------------------------------------------------
	 ==================> DF-MP2 Energies <==================== 
	-----------------------------------------------------------
	 Reference Energy          =    -304.7354952195340161 [Eh]
	 Singles Energy            =      -0.0000000000000000 [Eh]
	 Same-Spin Energy          =      -0.2854826493326363 [Eh]
	 Opposite-Spin Energy      =      -0.8633291999857154 [Eh]
	 Correlation Energy        =      -1.1488118493183517 [Eh]
	 Total Energy              =    -305.8843070688523653 [Eh]
	-----------------------------------------------------------
	 ================> DF-SCS-MP2 Energies <================== 
	-----------------------------------------------------------
	 SCS Same-Spin Scale       =       0.3333333333333333 [-]
	 SCS Opposite-Spin Scale   =       1.2000000000000000 [-]
	 SCS Same-Spin Energy      =      -0.0951608831108788 [Eh]
	 SCS Opposite-Spin Energy  =      -1.0359950399828586 [Eh]
	 SCS Correlation Energy    =      -1.1311559230937374 [Eh]
	 SCS Total Energy          =    -305.8666511426277452 [Eh]
	-----------------------------------------------------------


*** tstop() called on n067 at Mon Jun  8 13:44:47 2020
Module time:
	user time   =       6.81 seconds =       0.11 minutes
	system time =       0.12 seconds =       0.00 minutes
	total time  =          2 seconds =       0.03 minutes
Total time:
	user time   =     205.36 seconds =       3.42 minutes
	system time =       8.64 seconds =       0.14 minutes
	total time  =         57 seconds =       0.95 minutes

========================OPTAVC-XTPL==========================

MP2/TZ correlation energy -1.1488118493183517

=============================================================

    Psi4 stopped on: Monday, 08 June 2020 01:44PM
    Psi4 wall time for execution: 0:00:56.82

*** Psi4 exiting successfully. Buy a developer a beer!
