
 Primary working directories    : /tmp/320938.43.gen4.q
 Secondary working directories  : /tmp/320938.43.gen4.q
 Wavefunction directory         : /home/vulcan/mel64643/wfu/
 Main file repository           : /tmp/320938.43.gen4.q/

 ARCHNAME  : Linux/x86_64
 FC        : /opt/intel/compilers_and_libraries_2016.1.150/linux/bin/intel64/ifort
 FCVERSION : 16.0.1
 BLASLIB   : -mkl
 id        : ccgc

 Nodes     nprocs
 n032         3
 Number of processes for MPI-2 version of Molpro:   nprocs(total)=    4   nprocs(compute)=    3   nprocs(helper)=    1
 ga_uses_ma=false, calling ma_init with nominal heap.
 GA-space will be limited to   8.0 MW (determined by -G option)

 Using customized tuning parameters: mindgm=10; mindgv=16; mindgc=4; mindgr=1; noblas=0; mincuda=1000; minvec=7
 default implementation of scratch files=sf  

 ***,Frequencies for min3
 memory,1000,m
 gthresh,energy=1.0d-10,orbital=1.0d-10,oneint=1.0d-16,twoint=1.0d-16,optgrad=1.0d-6,compress=1.0d-13
 geomtyp=xyz
 
  geometry = {
  12
  arbitrary comment
     C    1.776964391707    0.711398808326   -0.047331391796
     C    0.491811976407   -0.059992870174   -0.196493901896
     C    0.450332819107   -1.536294019674    0.101417522804
     O   -0.560767745493    0.727234937526    0.254453964104
     O   -1.837840335593    0.092269037726   -0.120531795196
     H    2.585373063107    0.211465914126   -0.611440883996
     H    1.660426393907    1.742887987326   -0.428384098371
     H    2.094756670530    0.773818177314    1.019185751376
     H   -0.504681960287   -1.982699714529   -0.220399496899
     H    1.282131956204   -2.046845196324   -0.417124755843
     H    0.561645377036   -1.719645693265    1.194779169565
     H   -1.987967892047    0.551106530034   -0.966432760103
  }
 
 basis=cc-pvdz
 {rhf;maxit,200}
 {uccsd(t);maxit,200}

 Variables initialized (661), CPU time= 0.01 sec
 Commands  initialized (458), CPU time= 0.01 sec, 486 directives.
 Default parameters read. Elapsed time= 0.07 sec

 Checking input...
 Passed
1


                                         ***  PROGRAM SYSTEM MOLPRO  ***
                         Copyright, University College Cardiff Consultants Limited, 2008

                                    Version 2010.1 linked May 16 2016 07:17:05


 **********************************************************************************************************************************
 LABEL *   Frequencies for min3                                                          
 Linux-4.4.3/n032(x86_64) 64 bit mpp version                                             DATE: 07-Mar-20          TIME: 01:11:54  
 **********************************************************************************************************************************

 SHA1:             9e8077add272b0f3cad6f7df79ec5211205f459d
 **********************************************************************************************************************************

 THRESHOLDS:

 ZERO    =  1.00D-12  ONEINT  =  1.00D-16  TWOINT  =  1.00D-16  PREFAC  =  1.00D-14  LOCALI  =  1.00D-09  EORDER  =  1.00D-04
 ENERGY  =  1.00D-10  ETEST   =  0.00D+00  EDENS   =  0.00D+00  THRDEDEF=  1.00D-06  GRADIENT=  1.00D-02  STEP    =  1.00D-03
 ORBITAL =  1.00D-10  CIVEC   =  1.00D-05  COEFF   =  1.00D-04  PRINTCI =  5.00D-02  PUNCHCI =  9.90D+01  OPTGRAD =  1.00D-06
 OPTENERG=  1.00D-06  OPTSTEP =  3.00D-04  THRGRAD =  1.00D-10  COMPRESS=  1.00D-13  VARMIN  =  1.00D-07  VARMAX  =  1.00D-03
 THRDOUB =  0.00D+00  THRDIV  =  1.00D-05  THRRED  =  1.00D-07  THRPSP  =  1.00D+00  THRDC   =  1.00D-10  THRCS   =  1.00D-10
 THRNRM  =  1.00D-08  THREQ   =  0.00D+00  THRDE   =  1.00D+00  THRREF  =  1.00D-05  SPARFAC =  1.00D+00  THRDLP  =  1.00D-07
 THRDIA  =  1.00D-10  THRDLS  =  1.00D-07  THRGPS  =  0.00D+00  THRKEX  =  0.00D+00  THRDIS  =  2.00D-01  THRVAR  =  1.00D-10
 THRLOC  =  1.00D-06  THRGAP  =  1.00D-06  THRLOCT = -1.00D+00  THRGAPT = -1.00D+00  THRORB  =  1.00D-06  THRMLTP =  0.00D+00
 THRCPQCI=  1.00D-10  KEXTA   =  0.00D+00  THRCOARS=  0.00D+00  SYMTOL  =  1.00D-06  GRADTOL =  1.00D-06  THROVL  =  1.00D-08
 THRORTH =  1.00D-08  GRID    =  1.00D-06  GRIDMAX =  1.00D-03  DTMAX   =  0.00D+00

 SETTING GEOMTYP        =    XYZ

 Variable memory set to 1000000000 words,  buffer space   230000 words

 SETTING BASIS          =    CC-PVDZ


 Recomputing integrals since basis changed


 Using spherical harmonics

 Library entry C      S cc-pVDZ              selected for orbital group  1
 Library entry C      P cc-pVDZ              selected for orbital group  1
 Library entry C      D cc-pVDZ              selected for orbital group  1
 Library entry O      S cc-pVDZ              selected for orbital group  2
 Library entry O      P cc-pVDZ              selected for orbital group  2
 Library entry O      D cc-pVDZ              selected for orbital group  2
 Library entry H      S cc-pVDZ              selected for orbital group  3
 Library entry H      P cc-pVDZ              selected for orbital group  3

1PROGRAM * SEWARD (Integral evaluation for generally contracted gaussian basis sets)     Author: Roland Lindh, 1990

 Geometry written to block  1 of record 700


 Point group  C1  



 ATOMIC COORDINATES

 NR  ATOM    CHARGE       X              Y              Z

   1  C       6.00    3.357976046    1.344348918   -0.089443368
   2  C       6.00    0.929389944   -0.113370094   -0.371319661
   3  C       6.00    0.851005696   -2.903174955    0.191651343
   4  O       8.00   -1.059697462    1.374274865    0.480848305
   5  O       8.00   -3.473014908    0.174363212   -0.227772083
   6  H       1.00    4.885647037    0.399612664   -1.155455816
   7  H       1.00    3.137751146    3.293580974   -0.809528625
   8  H       1.00    3.958516419    1.462304431    1.925981947
   9  H       1.00   -0.953710688   -3.746759461   -0.416494689
  10  H       1.00    2.422878262   -3.867976854   -0.788251551
  11  H       1.00    1.061355946   -3.249659403    2.257805418
  12  H       1.00   -3.756714874    1.041440411   -1.826293241

 Bond lengths in Bohr (Angstrom)

 1-2  2.846476668  1-6  2.088704811  1-7  2.089623744  1-8  2.106300416  2-3  2.847119878
     ( 1.506290578)     ( 1.105294982)     ( 1.105781261)     ( 1.114606176)     ( 1.506630951)

  2- 4  2.625975338   3- 9  2.082901257   3-10  2.088500838   3-11  2.105538260   4- 5  2.786760112
       ( 1.389606300)       ( 1.102223874)       ( 1.105187044)       ( 1.114202860)       ( 1.474689938)

  5-12  1.840537539
       ( 0.973970518)

 Bond angles

  1-2-3  120.37866573   1-2-4  108.90555081   2-1-6  109.98947225   2-1-7  110.71164793

  2- 1- 8  111.51170630   2- 3- 9  111.28290295   2- 3-10  109.82595818   2- 3-11  110.64216102

  2- 4- 5  109.23946113   3- 2- 4  118.03986083   4- 5-12   98.71298828   6- 1- 7  108.85212611

  6- 1- 8  107.76702653   7- 1- 8  107.91118350   9- 3-10  109.14912847   9- 3-11  107.84379074

 10- 3-11  108.01124382

 NUCLEAR CHARGE:                   41
 NUMBER OF PRIMITIVE AOS:         184
 NUMBER OF SYMMETRY AOS:          179
 NUMBER OF CONTRACTIONS:          105   ( 105A   )
 NUMBER OF CORE ORBITALS:           5   (   5A   )
 NUMBER OF VALENCE ORBITALS:       27   (  27A   )


 NUCLEAR REPULSION ENERGY  183.21873497


 Eigenvalues of metric

         1 0.345E-02 0.435E-02 0.105E-01 0.141E-01 0.182E-01 0.214E-01 0.331E-01 0.346E-01


 Contracted 2-electron integrals neglected if value below      1.0D-16
 AO integral compression algorithm  1   Integral accuracy      1.0D-16

     127.664 MB (compressed) written to integral file ( 93.2%)

     Node minimum: 31.982 MB, node maximum: 50.070 MB


 NUMBER OF SORTED TWO-ELECTRON INTEGRALS:    5164320.     BUFFER LENGTH:  32768
 NUMBER OF SEGMENTS:   1  SEGMENT LENGTH:    5164320      RECORD LENGTH: 524288

 Memory used in sort:       5.72 MW

 SORT1 READ    17075251. AND WROTE     5135912. INTEGRALS IN     15 RECORDS. CPU TIME:     0.32 SEC, REAL TIME:     0.38 SEC
 SORT2 READ    15396656. AND WROTE    15487395. INTEGRALS IN    522 RECORDS. CPU TIME:     0.11 SEC, REAL TIME:     0.16 SEC

 Node minimum:     5160610.  Node maximum:     5164320. integrals

 OPERATOR DM      FOR CENTER  0  COORDINATES:    0.000000    0.000000    0.000000


 **********************************************************************************************************************************
 DATASETS  * FILE   NREC   LENGTH (MB)   RECORD NAMES
              1      18        3.17       500      610      700      900      950      970     1000      129      960     1100   
                                          VAR    BASINP    GEOM    SYMINP    ZMAT    AOBASIS   BASIS     P2S    ABASIS      S 
                                         1400     1410     1200     1210     1080     1600     1650     1700   
                                           T        V       H0       H01     AOSYM     SMH    MOLCAS    OPER   

 PROGRAMS   *        TOTAL       INT
 CPU TIMES  *         1.52      1.42
 REAL TIME  *         1.81 SEC
 DISK USED  *       314.93 MB      
 GA USED    *         0.00 MB       (max)       0.00 MB       (current)
 **********************************************************************************************************************************

1PROGRAM * RHF-SCF (OPEN SHELL)       Authors: W. Meyer, H.-J. Werner


 NUMBER OF ELECTRONS:      21+   20-    SPACE SYMMETRY=1    SPIN SYMMETRY: Doublet 
 CONVERGENCE THRESHOLDS:    1.00E-10 (Density)    1.00E-11 (Energy)
 MAX. NUMBER OF ITERATIONS:      200
 INTERPOLATION TYPE:            DIIS
 INTERPOLATION STEPS:              2 (START)      1 (STEP)
 LEVEL SHIFTS:                 -0.30 (CLOSED)  0.00 (OPEN) 



 Orbital guess generated from atomic densities. Full valence occupancy:   32

 Molecular orbital dump at record        2100.2

 ITERATION    DDIFF          GRAD             ENERGY        2-EL.EN.            DIPOLE MOMENTS         DIIS
    1      0.000D+00      0.000D+00      -267.17823583    555.810413    0.57102    0.04999   -0.74894    0
    2      0.000D+00      0.617D-02      -267.24890246    555.732105    0.41423   -0.13107   -0.59880    1
    3      0.927D-02      0.214D-02      -267.26108066    555.650110    0.39384   -0.05919   -0.62625    2
    4      0.336D-02      0.912D-03      -267.26469021    555.802351    0.37913   -0.09941   -0.64272    3
    5      0.186D-02      0.363D-03      -267.26525965    555.773714    0.38161   -0.09296   -0.63572    4
    6      0.792D-03      0.110D-03      -267.26533613    555.759978    0.37986   -0.09278   -0.63847    5
    7      0.277D-03      0.511D-04      -267.26535629    555.756960    0.37913   -0.09252   -0.63796    6
    8      0.144D-03      0.273D-04      -267.26536235    555.755017    0.37940   -0.09264   -0.63818    7
    9      0.924D-04      0.115D-04      -267.26536327    555.755329    0.37958   -0.09260   -0.63793    8
   10      0.366D-04      0.501D-05      -267.26536343    555.755941    0.37984   -0.09261   -0.63800    9
   11      0.147D-04      0.197D-05      -267.26536345    555.755783    0.37989   -0.09261   -0.63800    9
   12      0.651D-05      0.671D-06      -267.26536346    555.755917    0.37991   -0.09261   -0.63800    9
   13      0.227D-05      0.226D-06      -267.26536346    555.755833    0.37991   -0.09261   -0.63800    9
   14      0.632D-06      0.759D-07      -267.26536346    555.755841    0.37991   -0.09261   -0.63800    9
   15      0.193D-06      0.301D-07      -267.26536346    555.755837    0.37992   -0.09261   -0.63800    9
   16      0.828D-07      0.146D-07      -267.26536346    555.755839    0.37992   -0.09261   -0.63800    9
   17      0.377D-07      0.754D-08      -267.26536346    555.755839    0.37992   -0.09261   -0.63800    9
   18      0.224D-07      0.343D-08      -267.26536346    555.755839    0.37992   -0.09261   -0.63800    9
   19      0.115D-07      0.133D-08      -267.26536346    555.755839    0.37992   -0.09261   -0.63800    9
   20      0.444D-08      0.569D-09      -267.26536346    555.755839    0.37992   -0.09261   -0.63800    9
   21      0.166D-08      0.288D-09      -267.26536346    555.755839    0.37992   -0.09261   -0.63800    9
   22      0.757D-09      0.162D-09      -267.26536346    555.755839    0.37992   -0.09261   -0.63800    9
   23      0.448D-09      0.799D-10      -267.26536346    555.755839    0.37992   -0.09261   -0.63800    9
   24      0.265D-09      0.318D-10      -267.26536346    555.755839    0.37992   -0.09261   -0.63800    9
   25      0.936D-10      0.130D-10      -267.26536346    555.755839    0.37992   -0.09261   -0.63800    0

 Final alpha occupancy:  21
 Final beta  occupancy:  20

 !RHF STATE 1.1 Energy               -267.265363457019
 Nuclear energy                       183.21873497
 One-electron energy                 -728.36201795
 Two-electron energy                  277.87791953
 Virial quotient                       -1.00156214
 !RHF STATE 1.1 Dipole moment           0.37991662    -0.09260865    -0.63799738
 Dipole moment /Debye                   0.96558848    -0.23537229    -1.62152139

 Orbital energies:

         1.1          2.1          3.1          4.1          5.1          6.1          7.1          8.1          9.1         10.1
    -20.630479   -20.628791   -11.279278   -11.238106   -11.232194    -1.470219    -1.240803    -1.023186    -0.945243    -0.768415

        11.1         12.1         13.1         14.1         15.1         16.1         17.1         18.1         19.1         20.1
     -0.704678    -0.642958    -0.626760    -0.588722    -0.545115    -0.543363    -0.538932    -0.516910    -0.492999    -0.469783

        21.1         22.1         23.1
     -0.352309     0.181286     0.183549


 **********************************************************************************************************************************
 DATASETS  * FILE   NREC   LENGTH (MB)   RECORD NAMES
              1      18        3.17       500      610      700      900      950      970     1000      129      960     1100   
                                          VAR    BASINP    GEOM    SYMINP    ZMAT    AOBASIS   BASIS     P2S    ABASIS      S 
                                         1400     1410     1200     1210     1080     1600     1650     1700   
                                           T        V       H0       H01     AOSYM     SMH    MOLCAS    OPER   

              2       3        0.77       700     1000     2100   
                                         GEOM     BASIS     RHF  

 PROGRAMS   *        TOTAL       RHF       INT
 CPU TIMES  *         3.43      1.91      1.42
 REAL TIME  *         3.88 SEC
 DISK USED  *       331.50 MB      
 SF USED    *         0.04 MB      
 GA USED    *         0.00 MB       (max)       0.00 MB       (current)
 **********************************************************************************************************************************


1PROGRAM * CCSD (Unrestricted open-shell coupled cluster)     Authors: C. Hampel, H.-J. Werner, 1991, M. Deegan, P.J. Knowles, 1992


 Convergence thresholds:  THRVAR = 1.00D-08  THRDEN = 1.00D-10

 CCSD(T)     terms to be evaluated (factor= 1.000)


 Number of core orbitals:           5 (   5 )
 Number of closed-shell orbitals:  15 (  15 )
 Number of active  orbitals:        1 (   1 )
 Number of external orbitals:      84 (  84 )

 Memory could be reduced to 24.91 Mwords without degradation in triples

 Number of N-1 electron functions:              31
 Number of N-2 electron functions:             465
 Number of singly external CSFs:              2635
 Number of doubly external CSFs:           2537250
 Total number of CSFs:                     2539885

 Molecular orbitals read from record     2100.2  Type=RHF/CANONICAL (state 1.1)

 Integral transformation finished. Total CPU:   1.45 sec, npass=  1  Memory used:  12.63 MW

 Starting RMP2 calculation

 ITER.      SQ.NORM     CORR.ENERGY   TOTAL ENERGY   ENERGY CHANGE        DEN1      VAR(S)    VAR(P)  DIIS     TIME
   1      1.24305424    -0.78639223  -268.05175569    -0.78639223    -0.00305036  0.20D-04  0.11D-02  1  1     1.88
   2      1.24569649    -0.78968186  -268.05504532    -0.00328963    -0.00000475  0.54D-06  0.19D-05  2  2     2.24
   3      1.24576209    -0.78972396  -268.05508741    -0.00004209    -0.00000003  0.16D-07  0.68D-08  3  3     2.64
   4      1.24576304    -0.78972396  -268.05508741    -0.00000000    -0.00000000  0.27D-09  0.38D-10  4  4     3.07
   5      1.24576312    -0.78972399  -268.05508745    -0.00000003    -0.00000000  0.25D-11  0.65D-12  5  5     3.52
   6      1.24576314    -0.78972400  -268.05508745    -0.00000001    -0.00000000  0.28D-13  0.87D-14  6  6     4.00
   7      1.24576314    -0.78972400  -268.05508745     0.00000000    -0.00000000  0.47D-15  0.12D-15  6  1     4.49
   8      1.24576314    -0.78972400  -268.05508745     0.00000000    -0.00000000  0.60D-17  0.13D-17  6  2     4.98

 Norm of t1 vector:      0.03893538      S-energy:    -0.00227169      T1 diagnostic:  0.00055047
 Norm of t2 vector:      0.49421369      P-energy:    -0.78745230
                                         Alpha-Beta:  -0.59343278
                                         Alpha-Alpha: -0.10094075
                                         Beta-Beta:   -0.09307878

 Spin contamination <S**2-Sz**2-Sz>     0.00104047
  Reference energy                   -267.265363457018
  RHF-RMP2 correlation energy          -0.789723995719
 !RHF-RMP2 energy                    -268.055087452736

 Starting UCCSD calculation

 ITER.      SQ.NORM     CORR.ENERGY   TOTAL ENERGY   ENERGY CHANGE        DEN1      VAR(S)    VAR(P)  DIIS     TIME
   1      1.26283492    -0.80906512  -268.07442858    -0.80906512    -0.02515988  0.38D-02  0.59D-02  1  1    13.16
   2      1.29161872    -0.83647901  -268.10184247    -0.02741389    -0.00201172  0.22D-03  0.66D-03  2  2    21.30
   3      1.30156441    -0.84097893  -268.10634239    -0.00449992    -0.00032472  0.19D-03  0.56D-04  3  3    30.94
   4      1.30647917    -0.84245656  -268.10782002    -0.00147763    -0.00007210  0.43D-04  0.14D-04  4  4    40.71
   5      1.30920941    -0.84284478  -268.10820823    -0.00038821    -0.00002367  0.19D-04  0.32D-05  5  5    50.61
   6      1.31114848    -0.84304926  -268.10841272    -0.00020448    -0.00000645  0.42D-05  0.12D-05  6  6    60.41
   7      1.31209742    -0.84310802  -268.10847148    -0.00005876    -0.00000208  0.14D-05  0.37D-06  6  2    70.18
   8      1.31253867    -0.84315068  -268.10851414    -0.00004266    -0.00000065  0.45D-06  0.11D-06  6  1    80.05
   9      1.31272371    -0.84315526  -268.10851872    -0.00000458    -0.00000022  0.15D-06  0.35D-07  6  4    89.94
  10      1.31278686    -0.84315820  -268.10852165    -0.00000293    -0.00000005  0.35D-07  0.95D-08  6  3    99.72
  11      1.31281634    -0.84315694  -268.10852039     0.00000126    -0.00000002  0.13D-07  0.28D-08  6  5   109.55
  12      1.31282670    -0.84315667  -268.10852013     0.00000026    -0.00000000  0.26D-08  0.95D-09  6  6   119.40
  13      1.31282556    -0.84315576  -268.10851921     0.00000092    -0.00000000  0.96D-09  0.28D-09  6  2   129.15
  14      1.31282035    -0.84315491  -268.10851837     0.00000084    -0.00000000  0.21D-09  0.67D-10  6  1   139.23
  15      1.31281628    -0.84315433  -268.10851778     0.00000059    -0.00000000  0.78D-10  0.19D-10  6  4   149.09
  16      1.31281309    -0.84315394  -268.10851740     0.00000038    -0.00000000  0.28D-10  0.63D-11  6  3   158.98
  17      1.31281089    -0.84315371  -268.10851716     0.00000024    -0.00000000  0.10D-10  0.24D-11  6  5   168.74
  18      1.31280999    -0.84315365  -268.10851710     0.00000006    -0.00000000  0.41D-11  0.87D-12  6  6   178.54
  19      1.31280938    -0.84315361  -268.10851707     0.00000003    -0.00000000  0.16D-11  0.37D-12  6  2   188.41
  20      1.31280906    -0.84315360  -268.10851706     0.00000001    -0.00000000  0.60D-12  0.13D-12  6  1   198.17
  21      1.31280890    -0.84315359  -268.10851705     0.00000001    -0.00000000  0.28D-12  0.58D-13  6  4   208.05
  22      1.31280878    -0.84315358  -268.10851704     0.00000001    -0.00000000  0.74D-13  0.21D-13  6  3   217.95
  23      1.31280872    -0.84315358  -268.10851703     0.00000000    -0.00000000  0.21D-13  0.63D-14  6  5   227.79
  24      1.31280871    -0.84315358  -268.10851704    -0.00000000    -0.00000000  0.67D-14  0.23D-14  6  6   237.54
  25      1.31280872    -0.84315358  -268.10851704    -0.00000000    -0.00000000  0.21D-14  0.52D-15  6  2   247.29
  26      1.31280872    -0.84315358  -268.10851704    -0.00000000    -0.00000000  0.77D-15  0.15D-15  6  1   257.06
  27      1.31280873    -0.84315358  -268.10851704    -0.00000000    -0.00000000  0.20D-15  0.63D-16  6  3   266.93
  28      1.31280874    -0.84315358  -268.10851704    -0.00000000    -0.00000000  0.30D-16  0.11D-16  6  4   276.64
  29      1.31280874    -0.84315358  -268.10851704    -0.00000000    -0.00000000  0.71D-17  0.29D-17  6  5   286.38
  30      1.31280874    -0.84315358  -268.10851704    -0.00000000    -0.00000000  0.15D-17  0.54D-18  6  6   296.16
  31      1.31280874    -0.84315358  -268.10851704    -0.00000000    -0.00000000  0.35D-18  0.10D-18  6  2   306.23

 Norm of t1 vector:      0.13871877      S-energy:    -0.00282142      T1 diagnostic:  0.01616916
                                                                       D1 diagnostic:  0.06282583
 Norm of t2 vector:      0.54181717      P-energy:    -0.84033216
                                         Alpha-Beta:  -0.66489089
                                         Alpha-Alpha: -0.09147225
                                         Beta-Beta:   -0.08396902

 Spin contamination <S**2-Sz**2-Sz>     0.00217104

 Memory could be reduced to 28.85 Mwords without degradation in triples
 

 RESULTS
 =======

  Reference energy                   -267.265363457018
  UCCSD singles energy                 -0.002821421821
  UCCSD pair energy                    -0.840332159804
  UCCSD correlation energy             -0.843153581625
  Triples (T) contribution             -0.024978971004
  Total correlation energy             -0.868132552629
 
  RHF-UCCSD energy                   -268.108517038643
  RHF-UCCSD[T] energy                -268.134831986512
  RHF-UCCSD-T energy                 -268.133074468171
 !RHF-UCCSD(T) energy                -268.133496009647

 Program statistics:

 Available memory in ccsd:               999997692
 Min. memory needed in ccsd:               7337057
 Max. memory used in ccsd:                10523002
 Max. memory used in cckext:              10867977 (31 integral passes)
 Max. memory used in cckint:              12633073 ( 1 integral passes)



 **********************************************************************************************************************************
 DATASETS  * FILE   NREC   LENGTH (MB)   RECORD NAMES
              1      18        3.17       500      610      700      900      950      970     1000      129      960     1100   
                                          VAR    BASINP    GEOM    SYMINP    ZMAT    AOBASIS   BASIS     P2S    ABASIS      S 
                                         1400     1410     1200     1210     1080     1600     1650     1700   
                                           T        V       H0       H01     AOSYM     SMH    MOLCAS    OPER   

              2       3        0.77       700     1000     2100   
                                         GEOM     BASIS     RHF  

 PROGRAMS   *        TOTAL  UCCSD(T)       RHF       INT
 CPU TIMES  *       387.99    384.55      1.91      1.42
 REAL TIME  *       404.40 SEC
 DISK USED  *         1.30 GB      
 SF USED    *       553.73 MB      
 GA USED    *         0.00 MB       (max)       0.00 MB       (current)
 **********************************************************************************************************************************

        UCCSD(T)        RHF-SCF 
   -268.13349601   -267.26536346
 **********************************************************************************************************************************
 Variable memory released
