
    -----------------------------------------------------------------------
          Psi4: An Open-Source Ab Initio Electronic Structure Package
                               Psi4 1.4a2.dev478 

                         Git: Rev {master} f722895 dirty


    R. M. Parrish, L. A. Burns, D. G. A. Smith, A. C. Simmonett,
    A. E. DePrince III, E. G. Hohenstein, U. Bozkaya, A. Yu. Sokolov,
    R. Di Remigio, R. M. Richard, J. F. Gonthier, A. M. James,
    H. R. McAlexander, A. Kumar, M. Saitow, X. Wang, B. P. Pritchard,
    P. Verma, H. F. Schaefer III, K. Patkowski, R. A. King, E. F. Valeev,
    F. A. Evangelista, J. M. Turney, T. D. Crawford, and C. D. Sherrill,
    J. Chem. Theory Comput. 13(7) pp 3185--3197 (2017).
    (doi: 10.1021/acs.jctc.7b00174)


                         Additional Contributions by
    P. Kraus, H. Kruse, M. H. Lechner, M. C. Schieber, R. A. Shaw,
    A. Alenaizan, R. Galvelis, Z. L. Glick, S. Lehtola, and J. P. Misiewicz

    -----------------------------------------------------------------------


    Psi4 started on: Monday, 08 June 2020 02:56PM

    Process ID: 17874
    Host:       n076
    PSIDATADIR: /opt/psi/4/master/share/psi4
    Memory:     500.0 MiB
    Threads:    4
    
  ==> Input File <==

--------------------------------------------------------------------------
set memory 40Gb

molecule {
    C   -1.174143750690   -0.774963495581   -0.000122054786
    H   -1.619161817890   -1.211058947381   -0.891063737386
    H   -1.619236641990   -1.208704502843    0.890631046116
    C   -1.174297984359    0.774658836031    0.000051225900
    H   -1.619479399375    1.210632379362    0.890969845418
    H   -1.619423379215    1.210879456075   -0.890774475949
    C    0.352794965256    0.922250379456    0.000125577867
    H    0.838656779139    1.892386138416    0.000270125877
    O    0.767417041605    0.000189445828   -1.027349771326
    C    0.353049046441   -0.922253278213   -0.000108472995
    H    0.839183659692   -1.892251521546   -0.000218927626
    O    0.767332595963   -0.000077350009    1.027401804623
}

set {
    e_convergence 10
    d_convergence 10
    freeze_core True
    basis_guess True
    cc_type conv
    maxiter 300
}

E = energy('mp2/heavy-aug-cc-pV(Q+d)Z')
psi4.print_out("\n========================OPTAVC-XTPL==========================\n\n")
psi4.print_out("MP2/QZ correlation energy {}\n".format(variable("MP2 CORRELATION ENERGY")))
psi4.print_out("SCF/QZ reference energy {}\n".format(variable("CURRENT REFERENCE ENERGY")))
psi4.print_out("\n\n=============================================================\n")

E = energy('mp2/heavy-aug-cc-pV(T+d)Z')
psi4.print_out("\n========================OPTAVC-XTPL==========================\n\n")
psi4.print_out("MP2/TZ correlation energy {}".format(variable("MP2 CORRELATION ENERGY")))
psi4.print_out("\n\n=============================================================\n")
--------------------------------------------------------------------------

Scratch directory: /tmp/

Scratch directory: /tmp/
    SCF Algorithm Type (re)set to DF.

*** tstart() called on n076
*** at Mon Jun  8 14:56:20 2020


  //>>>>>>>>>>>>>>>>>>>>>>>>>>>>>>>>>>>//
  //      Guess SCF, pcseg-0 Basis     //
  //<<<<<<<<<<<<<<<<<<<<<<<<<<<<<<<<<<<//

   => Loading Basis Set <=

    Name: PCSEG-0
    Role: ORBITAL
    Keyword: BASIS
    atoms 1, 4, 7, 10     entry C          line    71 file /opt/psi/4/master/share/psi4/basis/pcseg-0.gbs 
    atoms 2-3, 5-6, 8, 11 entry H          line    13 file /opt/psi/4/master/share/psi4/basis/pcseg-0.gbs 
    atoms 9, 12           entry O          line   103 file /opt/psi/4/master/share/psi4/basis/pcseg-0.gbs 


         ---------------------------------------------------------
                           SCF Castup computation                  
         ---------------------------------------------------------
                                   SCF
               by Justin Turney, Rob Parrish, Andy Simmonett
                          and Daniel G. A. Smith
                              RHF Reference
                        4 Threads,    500 MiB Core
         ---------------------------------------------------------

  ==> Geometry <==

    Molecular point group: c1
    Full point group: C1

    Geometry (in Angstrom), charge = 0, multiplicity = 1:

       Center              X                  Y                   Z               Mass       
    ------------   -----------------  -----------------  -----------------  -----------------
         C           -1.174143750690    -0.774963495581    -0.000122054786    12.000000000000
         H           -1.619161817890    -1.211058947381    -0.891063737386     1.007825032230
         H           -1.619236641990    -1.208704502843     0.890631046116     1.007825032230
         C           -1.174297984359     0.774658836031     0.000051225900    12.000000000000
         H           -1.619479399375     1.210632379362     0.890969845418     1.007825032230
         H           -1.619423379215     1.210879456075    -0.890774475949     1.007825032230
         C            0.352794965256     0.922250379456     0.000125577867    12.000000000000
         H            0.838656779139     1.892386138416     0.000270125877     1.007825032230
         O            0.767417041605     0.000189445828    -1.027349771326    15.994914619570
         C            0.353049046441    -0.922253278213    -0.000108472995    12.000000000000
         H            0.839183659692    -1.892251521546    -0.000218927626     1.007825032230
         O            0.767332595963    -0.000077350009     1.027401804623    15.994914619570

  Running in c1 symmetry.

  Rotational constants: A =      0.19854  B =      0.16229  C =      0.14678 [cm^-1]
  Rotational constants: A =   5952.01277  B =   4865.39171  C =   4400.27010 [MHz]
  Nuclear repulsion =  257.016280483542118

  Charge       = 0
  Multiplicity = 1
  Electrons    = 46
  Nalpha       = 23
  Nbeta        = 23

  ==> Algorithm <==

  SCF Algorithm Type is DF.
  DIIS enabled.
  MOM disabled.
  Fractional occupation disabled.
  Guess Type is SAD.
  Energy threshold   = 1.00e-10
  Density threshold  = 1.00e-10
  Integral threshold = 0.00e+00

  ==> Primary Basis <==

  Basis Set: PCSEG-0
    Blend: PCSEG-0
    Number of shells: 42
    Number of basis function: 66
    Number of Cartesian functions: 66
    Spherical Harmonics?: true
    Max angular momentum: 1

   => Loading Basis Set <=

    Name: (PCSEG-0 AUX)
    Role: JKFIT
    Keyword: DF_BASIS_SCF
    atoms 1, 4, 7, 10     entry C          line   198 file /opt/psi/4/master/share/psi4/basis/def2-universal-jkfit.gbs 
    atoms 2-3, 5-6, 8, 11 entry H          line    18 file /opt/psi/4/master/share/psi4/basis/def2-universal-jkfit.gbs 
    atoms 9, 12           entry O          line   318 file /opt/psi/4/master/share/psi4/basis/def2-universal-jkfit.gbs 

  ==> Integral Setup <==

  ==> DiskDFJK: Density-Fitted J/K Matrices <==

    J tasked:                  Yes
    K tasked:                  Yes
    wK tasked:                  No
    OpenMP threads:              4
    Integrals threads:           4
    Memory [MiB]:              375
    Algorithm:                Core
    Integral Cache:           NONE
    Schwarz Cutoff:          1E-12
    Fitting Condition:       1E-10

   => Auxiliary Basis Set <=

  Basis Set: (PCSEG-0 AUX)
    Blend: DEF2-UNIVERSAL-JKFIT
    Number of shells: 186
    Number of basis function: 562
    Number of Cartesian functions: 662
    Spherical Harmonics?: true
    Max angular momentum: 4

  Minimum eigenvalue in the overlap matrix is 1.2843466805E-03.
  Reciprocal condition number of the overlap matrix is 2.1210948252E-04.
    Using symmetric orthogonalization.

  ==> Pre-Iterations <==

  SCF Guess: Superposition of Atomic Densities via on-the-fly atomic UHF (no occupation information).

   -------------------------
    Irrep   Nso     Nmo    
   -------------------------
     A         66      66 
   -------------------------
    Total      66      66
   -------------------------

  ==> Iterations <==

                           Total Energy        Delta E     RMS |[F,P]|

   @DF-RHF iter SAD:  -303.69668783495797   -3.03697e+02   0.00000e+00 
   @DF-RHF iter   1:  -303.56575037332243    1.30937e-01   7.24072e-03 DIIS
   @DF-RHF iter   2:  -303.66480534025055   -9.90550e-02   3.96881e-03 DIIS
   @DF-RHF iter   3:  -303.69041922294548   -2.56139e-02   6.19860e-04 DIIS
   @DF-RHF iter   4:  -303.69160422659411   -1.18500e-03   1.96472e-04 DIIS
   @DF-RHF iter   5:  -303.69170000046438   -9.57739e-05   4.10598e-05 DIIS
   @DF-RHF iter   6:  -303.69170759471132   -7.59425e-06   8.38018e-06 DIIS
   @DF-RHF iter   7:  -303.69170799777839   -4.03067e-07   1.68690e-06 DIIS
   @DF-RHF iter   8:  -303.69170801187954   -1.41011e-08   5.41914e-07 DIIS
   @DF-RHF iter   9:  -303.69170801329551   -1.41597e-09   1.09352e-07 DIIS
   @DF-RHF iter  10:  -303.69170801337214   -7.66249e-11   1.85775e-08 DIIS
   @DF-RHF iter  11:  -303.69170801337424   -2.10321e-12   2.82817e-09 DIIS
   @DF-RHF iter  12:  -303.69170801337407    1.70530e-13   8.92750e-10 DIIS
   @DF-RHF iter  13:  -303.69170801337390    1.70530e-13   2.92814e-10 DIIS
   @DF-RHF iter  14:  -303.69170801337413   -2.27374e-13   5.77292e-11 DIIS
  Energy and wave function converged.


  ==> Post-Iterations <==

    Orbital Energies [Eh]
    ---------------------

    Doubly Occupied:                                                      

       1A    -20.584527     2A    -20.584463     3A    -11.369622  
       4A    -11.369605     5A    -11.256069     6A    -11.255663  
       7A     -1.537544     8A     -1.312965     9A     -1.091859  
      10A     -1.008904    11A     -0.821921    12A     -0.790223  
      13A     -0.768276    14A     -0.680690    15A     -0.663113  
      16A     -0.658500    17A     -0.552314    18A     -0.534412  
      19A     -0.527402    20A     -0.524506    21A     -0.519594  
      22A     -0.467028    23A     -0.443257  

    Virtual:                                                              

      24A      0.203094    25A      0.231211    26A      0.236168  
      27A      0.242145    28A      0.253161    29A      0.267414  
      30A      0.314453    31A      0.350226    32A      0.350957  
      33A      0.382105    34A      0.406849    35A      0.464619  
      36A      0.570259    37A      0.796360    38A      0.807930  
      39A      0.821117    40A      0.925653    41A      0.932755  
      42A      0.947029    43A      0.950082    44A      1.003542  
      45A      1.005156    46A      1.030116    47A      1.060633  
      48A      1.072109    49A      1.134083    50A      1.148785  
      51A      1.170488    52A      1.174319    53A      1.210926  
      54A      1.238029    55A      1.424409    56A      1.455061  
      57A      1.482508    58A      1.521995    59A      1.691293  
      60A      1.705484    61A      1.927994    62A      1.950904  
      63A      2.140096    64A      2.299088    65A      2.375005  
      66A      2.441151  

    Final Occupation by Irrep:
              A 
    DOCC [    23 ]

  @DF-RHF Final Energy:  -303.69170801337413

   => Energetics <=

    Nuclear Repulsion Energy =            257.0162804835421184
    One-Electron Energy =                -922.7710616265843555
    Two-Electron Energy =                 362.0630731296681120
    Total Energy =                       -303.6917080133741251

Computation Completed

  //>>>>>>>>>>>>>>>>>>>>>>>>>>>>>>>>>>>//
  //                SCF                //
  //<<<<<<<<<<<<<<<<<<<<<<<<<<<<<<<<<<<//

   => Loading Basis Set <=

    Name: HEAVY-AUG-CC-PV(Q+D)Z
    Role: ORBITAL
    Keyword: BASIS
    atoms 1, 4, 7, 10     entry C          line   333 file /opt/psi/4/master/share/psi4/basis/heavy-aug-cc-pv_qpd_z.gbs 
    atoms 2-3, 5-6, 8, 11 entry H          line    86 file /opt/psi/4/master/share/psi4/basis/heavy-aug-cc-pv_qpd_z.gbs 
    atoms 9, 12           entry O          line   453 file /opt/psi/4/master/share/psi4/basis/heavy-aug-cc-pv_qpd_z.gbs 


         ---------------------------------------------------------
                                   SCF
               by Justin Turney, Rob Parrish, Andy Simmonett
                          and Daniel G. A. Smith
                              RHF Reference
                        4 Threads,    500 MiB Core
         ---------------------------------------------------------

  ==> Geometry <==

    Molecular point group: c1
    Full point group: C1

    Geometry (in Angstrom), charge = 0, multiplicity = 1:

       Center              X                  Y                   Z               Mass       
    ------------   -----------------  -----------------  -----------------  -----------------
         C           -1.174143750690    -0.774963495581    -0.000122054786    12.000000000000
         H           -1.619161817890    -1.211058947381    -0.891063737386     1.007825032230
         H           -1.619236641990    -1.208704502843     0.890631046116     1.007825032230
         C           -1.174297984359     0.774658836031     0.000051225900    12.000000000000
         H           -1.619479399375     1.210632379362     0.890969845418     1.007825032230
         H           -1.619423379215     1.210879456075    -0.890774475949     1.007825032230
         C            0.352794965256     0.922250379456     0.000125577867    12.000000000000
         H            0.838656779139     1.892386138416     0.000270125877     1.007825032230
         O            0.767417041605     0.000189445828    -1.027349771326    15.994914619570
         C            0.353049046441    -0.922253278213    -0.000108472995    12.000000000000
         H            0.839183659692    -1.892251521546    -0.000218927626     1.007825032230
         O            0.767332595963    -0.000077350009     1.027401804623    15.994914619570

  Running in c1 symmetry.

  Rotational constants: A =      0.19854  B =      0.16229  C =      0.14678 [cm^-1]
  Rotational constants: A =   5952.01277  B =   4865.39171  C =   4400.27010 [MHz]
  Nuclear repulsion =  257.016280483542118

  Charge       = 0
  Multiplicity = 1
  Electrons    = 46
  Nalpha       = 23
  Nbeta        = 23

  ==> Algorithm <==

  SCF Algorithm Type is DF.
  DIIS enabled.
  MOM disabled.
  Fractional occupation disabled.
  Guess Type is SAD.
  Energy threshold   = 1.00e-10
  Density threshold  = 1.00e-10
  Integral threshold = 0.00e+00

  ==> Primary Basis <==

  Basis Set: HEAVY-AUG-CC-PV(Q+D)Z
    Blend: HEAVY-AUG-CC-PV(Q+D)Z
    Number of shells: 180
    Number of basis function: 660
    Number of Cartesian functions: 840
    Spherical Harmonics?: true
    Max angular momentum: 4

   => Loading Basis Set <=

    Name: (HEAVY-AUG-CC-PV(Q+D)Z AUX)
    Role: JKFIT
    Keyword: DF_BASIS_SCF
    atoms 1, 4, 7, 10     entry C          line   214 file /opt/psi/4/master/share/psi4/basis/heavy-aug-cc-pvqz-jkfit.gbs 
    atoms 2-3, 5-6, 8, 11 entry H          line   116 file /opt/psi/4/master/share/psi4/basis/heavy-aug-cc-pvqz-jkfit.gbs 
    atoms 9, 12           entry O          line   354 file /opt/psi/4/master/share/psi4/basis/heavy-aug-cc-pvqz-jkfit.gbs 


  Computing basis projection from PCSEG-0 to HEAVY-AUG-CC-PV(Q+D)Z

  ==> Integral Setup <==

  ==> DiskDFJK: Density-Fitted J/K Matrices <==

    J tasked:                  Yes
    K tasked:                  Yes
    wK tasked:                  No
    OpenMP threads:              4
    Integrals threads:           4
    Memory [MiB]:              375
    Algorithm:                Disk
    Integral Cache:           NONE
    Schwarz Cutoff:          1E-12
    Fitting Condition:       1E-10

   => Auxiliary Basis Set <=

  Basis Set: (HEAVY-AUG-CC-PV(Q+D)Z AUX)
    Blend: HEAVY-AUG-CC-PVQZ-JKFIT
    Number of shells: 282
    Number of basis function: 1158
    Number of Cartesian functions: 1584
    Spherical Harmonics?: true
    Max angular momentum: 5

  Minimum eigenvalue in the overlap matrix is 1.0913694119E-06.
  Reciprocal condition number of the overlap matrix is 6.9978748630E-08.
    Using symmetric orthogonalization.

  ==> Pre-Iterations <==

  SCF Guess: Orbitals guess was supplied from a previous computation.

   -------------------------
    Irrep   Nso     Nmo    
   -------------------------
     A        660     660 
   -------------------------
    Total     660     660
   -------------------------

  ==> Iterations <==

                           Total Energy        Delta E     RMS |[F,P]|

   @DF-RHF iter   0:  -304.22241885785934   -3.04222e+02   4.48098e-03 
   @DF-RHF iter   1:  -304.73372650130585   -5.11308e-01   3.36593e-04 DIIS
   @DF-RHF iter   2:  -304.74975745098328   -1.60309e-02   1.53670e-04 DIIS
   @DF-RHF iter   3:  -304.75362970118982   -3.87225e-03   2.81181e-05 DIIS
   @DF-RHF iter   4:  -304.75390668415230   -2.76983e-04   8.45665e-06 DIIS
   @DF-RHF iter   5:  -304.75392896749247   -2.22833e-05   3.57745e-06 DIIS
   @DF-RHF iter   6:  -304.75393277282046   -3.80533e-06   8.40652e-07 DIIS
   @DF-RHF iter   7:  -304.75393308161728   -3.08797e-07   1.79362e-07 DIIS
   @DF-RHF iter   8:  -304.75393309666862   -1.50513e-08   4.57184e-08 DIIS
   @DF-RHF iter   9:  -304.75393309775961   -1.09100e-09   1.48926e-08 DIIS
   @DF-RHF iter  10:  -304.75393309784727   -8.76526e-11   3.82361e-09 DIIS
   @DF-RHF iter  11:  -304.75393309785466   -7.38964e-12   9.82046e-10 DIIS
   @DF-RHF iter  12:  -304.75393309785460    5.68434e-14   2.85224e-10 DIIS
   @DF-RHF iter  13:  -304.75393309785534   -7.38964e-13   6.45696e-11 DIIS
  Energy and wave function converged.


  ==> Post-Iterations <==

    Orbital Energies [Eh]
    ---------------------

    Doubly Occupied:                                                      

       1A    -20.565181     2A    -20.565143     3A    -11.348549  
       4A    -11.348514     5A    -11.236525     6A    -11.235951  
       7A     -1.490819     8A     -1.292211     9A     -1.067480  
      10A     -0.987918    11A     -0.810305    12A     -0.789549  
      13A     -0.746595    14A     -0.672471    15A     -0.651312  
      16A     -0.646691    17A     -0.534303    18A     -0.524590  
      19A     -0.519442    20A     -0.512150    21A     -0.510206  
      22A     -0.459726    23A     -0.433700  

    Virtual:                                                              

      24A      0.041407    25A      0.042857    26A      0.050667  
      27A      0.062619    28A      0.063925    29A      0.079821  
      30A      0.080144    31A      0.083435    32A      0.101421  
      33A      0.110251    34A      0.111673    35A      0.112247  
      36A      0.139343    37A      0.151642    38A      0.166286  
      39A      0.171438    40A      0.178464    41A      0.178827  
      42A      0.188832    43A      0.188965    44A      0.199057  
      45A      0.207256    46A      0.226473    47A      0.227210  
      48A      0.229651    49A      0.257267    50A      0.260917  
      51A      0.270300    52A      0.270862    53A      0.271812  
      54A      0.286598    55A      0.288135    56A      0.291093  
      57A      0.301091    58A      0.316683    59A      0.320010  
      60A      0.325023    61A      0.333744    62A      0.337637  
      63A      0.355660    64A      0.358157    65A      0.369547  
      66A      0.380982    67A      0.388151    68A      0.389581  
      69A      0.391527    70A      0.391752    71A      0.395728  
      72A      0.398866    73A      0.412329    74A      0.420386  
      75A      0.420611    76A      0.440252    77A      0.453073  
      78A      0.456223    79A      0.462789    80A      0.495184  
      81A      0.515263    82A      0.518860    83A      0.522846  
      84A      0.528490    85A      0.550758    86A      0.571889  
      87A      0.574277    88A      0.585323    89A      0.589224  
      90A      0.598578    91A      0.600203    92A      0.613291  
      93A      0.629239    94A      0.641295    95A      0.653778  
      96A      0.659962    97A      0.684927    98A      0.689013  
      99A      0.695873   100A      0.704744   101A      0.716149  
     102A      0.716712   103A      0.732374   104A      0.743572  
     105A      0.757812   106A      0.764557   107A      0.790011  
     108A      0.790507   109A      0.794290   110A      0.795477  
     111A      0.827252   112A      0.832064   113A      0.833153  
     114A      0.849310   115A      0.860878   116A      0.875725  
     117A      0.884474   118A      0.897056   119A      0.920060  
     120A      0.938690   121A      0.947585   122A      0.957856  
     123A      0.961259   124A      0.988527   125A      1.002354  
     126A      1.010169   127A      1.011359   128A      1.016033  
     129A      1.034068   130A      1.035428   131A      1.046754  
     132A      1.062546   133A      1.070086   134A      1.075565  
     135A      1.096275   136A      1.114703   137A      1.128837  
     138A      1.140222   139A      1.155007   140A      1.159086  
     141A      1.160273   142A      1.166400   143A      1.168874  
     144A      1.175945   145A      1.191243   146A      1.198177  
     147A      1.208972   148A      1.221951   149A      1.229473  
     150A      1.234654   151A      1.238459   152A      1.239499  
     153A      1.244967   154A      1.276378   155A      1.276910  
     156A      1.287869   157A      1.288026   158A      1.306519  
     159A      1.314910   160A      1.327829   161A      1.370670  
     162A      1.371330   163A      1.408031   164A      1.408940  
     165A      1.437229   166A      1.442714   167A      1.458946  
     168A      1.469753   169A      1.474982   170A      1.485671  
     171A      1.491345   172A      1.508521   173A      1.525504  
     174A      1.534822   175A      1.544061   176A      1.593466  
     177A      1.594338   178A      1.618339   179A      1.620317  
     180A      1.625450   181A      1.626521   182A      1.647828  
     183A      1.682931   184A      1.687464   185A      1.699088  
     186A      1.723566   187A      1.728491   188A      1.731003  
     189A      1.757393   190A      1.775749   191A      1.776211  
     192A      1.815269   193A      1.865641   194A      1.870831  
     195A      1.885957   196A      1.901003   197A      1.911968  
     198A      1.923966   199A      1.961051   200A      1.968440  
     201A      1.996935   202A      1.997461   203A      2.018152  
     204A      2.026411   205A      2.026621   206A      2.028270  
     207A      2.032575   208A      2.039843   209A      2.044121  
     210A      2.106921   211A      2.116269   212A      2.125195  
     213A      2.142244   214A      2.143345   215A      2.174094  
     216A      2.187880   217A      2.188135   218A      2.209245  
     219A      2.249341   220A      2.258648   221A      2.265982  
     222A      2.293612   223A      2.293696   224A      2.306475  
     225A      2.335815   226A      2.341691   227A      2.359142  
     228A      2.363166   229A      2.366659   230A      2.373498  
     231A      2.389452   232A      2.395833   233A      2.403155  
     234A      2.418524   235A      2.441546   236A      2.442544  
     237A      2.462794   238A      2.485257   239A      2.492538  
     240A      2.517478   241A      2.526273   242A      2.533314  
     243A      2.548506   244A      2.560004   245A      2.584307  
     246A      2.587475   247A      2.621336   248A      2.626412  
     249A      2.634467   250A      2.645233   251A      2.660581  
     252A      2.682575   253A      2.705911   254A      2.714031  
     255A      2.729267   256A      2.730893   257A      2.751249  
     258A      2.763427   259A      2.764091   260A      2.801519  
     261A      2.803429   262A      2.812170   263A      2.832434  
     264A      2.858376   265A      2.866669   266A      2.919110  
     267A      2.935395   268A      2.941064   269A      2.966657  
     270A      2.974798   271A      2.986863   272A      2.987191  
     273A      3.009155   274A      3.031506   275A      3.041252  
     276A      3.048652   277A      3.074834   278A      3.076984  
     279A      3.084029   280A      3.104002   281A      3.109930  
     282A      3.136569   283A      3.142965   284A      3.153515  
     285A      3.170110   286A      3.187231   287A      3.223089  
     288A      3.248111   289A      3.259531   290A      3.268024  
     291A      3.288329   292A      3.292847   293A      3.320289  
     294A      3.362976   295A      3.367116   296A      3.394934  
     297A      3.398593   298A      3.402853   299A      3.431649  
     300A      3.452759   301A      3.464661   302A      3.474506  
     303A      3.501845   304A      3.524059   305A      3.536249  
     306A      3.549405   307A      3.572154   308A      3.598323  
     309A      3.610038   310A      3.618374   311A      3.635898  
     312A      3.661456   313A      3.691071   314A      3.706600  
     315A      3.717079   316A      3.746896   317A      3.752441  
     318A      3.757194   319A      3.805641   320A      3.834629  
     321A      3.843445   322A      3.844084   323A      3.872962  
     324A      3.908421   325A      3.909166   326A      3.917009  
     327A      3.950505   328A      3.963426   329A      3.982066  
     330A      4.040694   331A      4.041464   332A      4.048156  
     333A      4.061373   334A      4.085286   335A      4.099823  
     336A      4.120089   337A      4.134550   338A      4.157142  
     339A      4.172977   340A      4.203042   341A      4.206207  
     342A      4.217763   343A      4.238182   344A      4.244161  
     345A      4.273268   346A      4.292926   347A      4.317700  
     348A      4.331509   349A      4.336776   350A      4.357554  
     351A      4.406264   352A      4.426982   353A      4.439684  
     354A      4.452265   355A      4.459694   356A      4.489505  
     357A      4.497688   358A      4.512063   359A      4.517368  
     360A      4.541268   361A      4.568947   362A      4.594007  
     363A      4.627391   364A      4.652716   365A      4.669561  
     366A      4.691887   367A      4.696465   368A      4.698335  
     369A      4.718604   370A      4.736805   371A      4.749991  
     372A      4.762051   373A      4.787612   374A      4.823576  
     375A      4.823957   376A      4.826595   377A      4.844476  
     378A      4.846087   379A      4.901129   380A      4.942457  
     381A      4.976717   382A      5.000759   383A      5.001599  
     384A      5.021268   385A      5.059480   386A      5.122340  
     387A      5.154860   388A      5.164042   389A      5.183104  
     390A      5.237089   391A      5.244814   392A      5.253113  
     393A      5.276878   394A      5.289399   395A      5.304889  
     396A      5.342122   397A      5.357875   398A      5.374663  
     399A      5.407356   400A      5.488776   401A      5.512620  
     402A      5.555342   403A      5.582362   404A      5.626923  
     405A      5.647311   406A      5.649204   407A      5.669275  
     408A      5.782276   409A      5.821930   410A      5.828814  
     411A      5.837504   412A      5.897834   413A      5.973550  
     414A      6.030757   415A      6.102485   416A      6.137651  
     417A      6.192917   418A      6.214169   419A      6.227674  
     420A      6.236641   421A      6.293058   422A      6.335964  
     423A      6.338595   424A      6.345837   425A      6.366801  
     426A      6.398242   427A      6.417424   428A      6.459103  
     429A      6.491098   430A      6.496227   431A      6.512039  
     432A      6.520085   433A      6.531136   434A      6.577564  
     435A      6.586396   436A      6.612285   437A      6.638726  
     438A      6.644087   439A      6.656597   440A      6.680373  
     441A      6.700065   442A      6.700850   443A      6.717514  
     444A      6.748150   445A      6.765907   446A      6.781930  
     447A      6.814596   448A      6.820584   449A      6.855508  
     450A      6.885506   451A      6.913377   452A      6.914781  
     453A      6.921743   454A      6.925488   455A      6.937958  
     456A      6.976587   457A      6.988189   458A      7.011168  
     459A      7.039558   460A      7.092776   461A      7.101647  
     462A      7.105097   463A      7.134082   464A      7.152911  
     465A      7.179337   466A      7.195067   467A      7.196063  
     468A      7.219110   469A      7.221952   470A      7.249281  
     471A      7.276650   472A      7.304353   473A      7.353414  
     474A      7.359798   475A      7.366830   476A      7.418991  
     477A      7.429971   478A      7.437030   479A      7.468843  
     480A      7.528611   481A      7.541367   482A      7.583954  
     483A      7.600902   484A      7.604218   485A      7.635759  
     486A      7.707583   487A      7.731045   488A      7.741439  
     489A      7.751366   490A      7.782835   491A      7.802298  
     492A      7.833158   493A      7.841303   494A      7.844161  
     495A      7.917686   496A      7.936895   497A      7.943061  
     498A      7.986619   499A      7.996845   500A      8.014016  
     501A      8.015586   502A      8.042421   503A      8.085169  
     504A      8.105335   505A      8.146921   506A      8.155317  
     507A      8.190960   508A      8.192928   509A      8.322720  
     510A      8.326763   511A      8.334990   512A      8.351826  
     513A      8.378675   514A      8.408675   515A      8.413634  
     516A      8.478101   517A      8.496005   518A      8.497663  
     519A      8.531995   520A      8.552451   521A      8.557663  
     522A      8.586441   523A      8.609948   524A      8.612197  
     525A      8.649583   526A      8.686726   527A      8.707002  
     528A      8.715946   529A      8.762865   530A      8.813917  
     531A      8.825474   532A      8.837618   533A      8.840983  
     534A      8.841383   535A      8.879674   536A      8.900983  
     537A      8.903751   538A      8.936663   539A      8.957187  
     540A      8.993385   541A      9.015450   542A      9.027675  
     543A      9.033713   544A      9.048430   545A      9.055775  
     546A      9.085662   547A      9.109801   548A      9.117471  
     549A      9.172096   550A      9.177206   551A      9.190090  
     552A      9.234359   553A      9.248496   554A      9.314941  
     555A      9.343479   556A      9.351753   557A      9.352656  
     558A      9.366697   559A      9.401787   560A      9.453555  
     561A      9.497661   562A      9.513115   563A      9.526619  
     564A      9.557760   565A      9.649149   566A      9.659255  
     567A      9.728153   568A      9.755566   569A      9.769095  
     570A      9.790336   571A      9.835339   572A      9.900487  
     573A      9.919938   574A      9.930956   575A      9.959776  
     576A     10.067611   577A     10.117455   578A     10.234034  
     579A     10.242469   580A     10.256491   581A     10.294827  
     582A     10.417344   583A     10.478336   584A     10.507258  
     585A     10.509255   586A     10.593272   587A     10.629244  
     588A     10.642934   589A     10.780332   590A     10.795193  
     591A     10.824824   592A     10.827302   593A     10.973810  
     594A     11.002092   595A     11.064929   596A     11.071835  
     597A     11.101622   598A     11.105997   599A     11.130811  
     600A     11.153839   601A     11.162339   602A     11.209776  
     603A     11.225764   604A     11.251976   605A     11.334353  
     606A     11.383695   607A     11.452239   608A     11.455439  
     609A     11.494439   610A     11.498806   611A     11.508219  
     612A     11.542471   613A     11.619518   614A     11.645196  
     615A     11.721950   616A     11.813708   617A     11.819995  
     618A     11.847489   619A     11.885822   620A     11.907908  
     621A     12.198693   622A     12.253631   623A     12.316575  
     624A     12.378334   625A     12.640939   626A     12.651314  
     627A     12.825525   628A     12.869990   629A     12.964527  
     630A     13.028259   631A     13.075734   632A     13.075936  
     633A     13.184091   634A     13.241260   635A     13.257047  
     636A     13.354490   637A     13.357463   638A     13.386436  
     639A     13.421987   640A     13.512408   641A     13.523369  
     642A     13.532808   643A     13.717725   644A     13.737302  
     645A     13.789274   646A     13.813470   647A     13.846794  
     648A     13.908494   649A     13.968802   650A     13.979364  
     651A     14.123344   652A     14.155075   653A     14.690267  
     654A     14.883895   655A     27.255361   656A     27.849406  
     657A     28.047300   658A     28.613773   659A     44.796982  
     660A     45.695803  

    Final Occupation by Irrep:
              A 
    DOCC [    23 ]

  @DF-RHF Final Energy:  -304.75393309785534

   => Energetics <=

    Nuclear Repulsion Energy =            257.0162804835421184
    One-Electron Energy =                -925.6417638709940547
    Two-Electron Energy =                 363.8715502895965983
    Total Energy =                       -304.7539330978553380

Computation Completed


Properties will be evaluated at   0.000000,   0.000000,   0.000000 [a0]

Properties computed using the SCF density matrix

  Nuclear Dipole Moment: [e a0]
     X:    -4.4920      Y:     0.0018      Z:    -0.0002

  Electronic Dipole Moment: [e a0]
     X:     3.7199      Y:    -0.0019      Z:     0.0004

  Dipole Moment: [e a0]
     X:    -0.7721      Y:    -0.0001      Z:     0.0002     Total:     0.7721

  Dipole Moment: [D]
     X:    -1.9624      Y:    -0.0004      Z:     0.0006     Total:     1.9624


*** tstop() called on n076 at Mon Jun  8 14:57:00 2020
Module time:
	user time   =     149.30 seconds =       2.49 minutes
	system time =       5.52 seconds =       0.09 minutes
	total time  =         40 seconds =       0.67 minutes
Total time:
	user time   =     149.30 seconds =       2.49 minutes
	system time =       5.52 seconds =       0.09 minutes
	total time  =         40 seconds =       0.67 minutes

*** tstart() called on n076
*** at Mon Jun  8 14:57:00 2020


  //>>>>>>>>>>>>>>>>>>>>>>>>>>>>>>>>>>>//
  //               DFMP2               //
  //<<<<<<<<<<<<<<<<<<<<<<<<<<<<<<<<<<<//

   => Loading Basis Set <=

    Name: (HEAVY-AUG-CC-PV(Q+D)Z AUX)
    Role: RIFIT
    Keyword: DF_BASIS_MP2
    atoms 1, 4, 7, 10     entry C          line   180 file /opt/psi/4/master/share/psi4/basis/heavy-aug-cc-pvqz-ri.gbs 
    atoms 2-3, 5-6, 8, 11 entry H          line    44 file /opt/psi/4/master/share/psi4/basis/heavy-aug-cc-pvqz-ri.gbs 
    atoms 9, 12           entry O          line   328 file /opt/psi/4/master/share/psi4/basis/heavy-aug-cc-pvqz-ri.gbs 

	 --------------------------------------------------------
	                          DF-MP2                         
	      2nd-Order Density-Fitted Moller-Plesset Theory     
	              RMP2 Wavefunction,   4 Threads             
	                                                         
	        Rob Parrish, Justin Turney, Andy Simmonett,      
	           Ed Hohenstein, and C. David Sherrill          
	 --------------------------------------------------------

   => Auxiliary Basis Set <=

  Basis Set: (HEAVY-AUG-CC-PV(Q+D)Z AUX)
    Blend: HEAVY-AUG-CC-PVQZ-RI
    Number of shells: 306
    Number of basis function: 1338
    Number of Cartesian functions: 1842
    Spherical Harmonics?: true
    Max angular momentum: 5

	 --------------------------------------------------------
	                 NBF =   660, NAUX =  1338
	 --------------------------------------------------------
	   CLASS    FOCC     OCC    AOCC    AVIR     VIR    FVIR
	   PAIRS       6      23      17     637     637       0
	 --------------------------------------------------------

	-----------------------------------------------------------
	 ==================> DF-MP2 Energies <==================== 
	-----------------------------------------------------------
	 Reference Energy          =    -304.7539330978553380 [Eh]
	 Singles Energy            =      -0.0000000000000000 [Eh]
	 Same-Spin Energy          =      -0.2941263773734988 [Eh]
	 Opposite-Spin Energy      =      -0.9238374336448795 [Eh]
	 Correlation Energy        =      -1.2179638110183784 [Eh]
	 Total Energy              =    -305.9718969088737026 [Eh]
	-----------------------------------------------------------
	 ================> DF-SCS-MP2 Energies <================== 
	-----------------------------------------------------------
	 SCS Same-Spin Scale       =       0.3333333333333333 [-]
	 SCS Opposite-Spin Scale   =       1.2000000000000000 [-]
	 SCS Same-Spin Energy      =      -0.0980421257911663 [Eh]
	 SCS Opposite-Spin Energy  =      -1.1086049203738553 [Eh]
	 SCS Correlation Energy    =      -1.2066470461650216 [Eh]
	 SCS Total Energy          =    -305.9605801440203550 [Eh]
	-----------------------------------------------------------


*** tstop() called on n076 at Mon Jun  8 14:57:08 2020
Module time:
	user time   =      28.81 seconds =       0.48 minutes
	system time =       0.53 seconds =       0.01 minutes
	total time  =          8 seconds =       0.13 minutes
Total time:
	user time   =     178.11 seconds =       2.97 minutes
	system time =       6.05 seconds =       0.10 minutes
	total time  =         48 seconds =       0.80 minutes

========================OPTAVC-XTPL==========================

MP2/QZ correlation energy -1.2179638110183784
SCF/QZ reference energy -304.75393309785534


=============================================================

Scratch directory: /tmp/

Scratch directory: /tmp/
    SCF Algorithm Type (re)set to DF.

*** tstart() called on n076
*** at Mon Jun  8 14:57:08 2020


  //>>>>>>>>>>>>>>>>>>>>>>>>>>>>>>>>>>>//
  //      Guess SCF, pcseg-0 Basis     //
  //<<<<<<<<<<<<<<<<<<<<<<<<<<<<<<<<<<<//

   => Loading Basis Set <=

    Name: PCSEG-0
    Role: ORBITAL
    Keyword: BASIS
    atoms 1, 4, 7, 10     entry C          line    71 file /opt/psi/4/master/share/psi4/basis/pcseg-0.gbs 
    atoms 2-3, 5-6, 8, 11 entry H          line    13 file /opt/psi/4/master/share/psi4/basis/pcseg-0.gbs 
    atoms 9, 12           entry O          line   103 file /opt/psi/4/master/share/psi4/basis/pcseg-0.gbs 


         ---------------------------------------------------------
                           SCF Castup computation                  
         ---------------------------------------------------------
                                   SCF
               by Justin Turney, Rob Parrish, Andy Simmonett
                          and Daniel G. A. Smith
                              RHF Reference
                        4 Threads,    500 MiB Core
         ---------------------------------------------------------

  ==> Geometry <==

    Molecular point group: c1
    Full point group: C1

    Geometry (in Angstrom), charge = 0, multiplicity = 1:

       Center              X                  Y                   Z               Mass       
    ------------   -----------------  -----------------  -----------------  -----------------
         C           -1.174143750690    -0.774963495581    -0.000122054786    12.000000000000
         H           -1.619161817890    -1.211058947381    -0.891063737386     1.007825032230
         H           -1.619236641990    -1.208704502843     0.890631046116     1.007825032230
         C           -1.174297984359     0.774658836031     0.000051225900    12.000000000000
         H           -1.619479399375     1.210632379362     0.890969845418     1.007825032230
         H           -1.619423379215     1.210879456075    -0.890774475949     1.007825032230
         C            0.352794965256     0.922250379456     0.000125577867    12.000000000000
         H            0.838656779139     1.892386138416     0.000270125877     1.007825032230
         O            0.767417041605     0.000189445828    -1.027349771326    15.994914619570
         C            0.353049046441    -0.922253278213    -0.000108472995    12.000000000000
         H            0.839183659692    -1.892251521546    -0.000218927626     1.007825032230
         O            0.767332595963    -0.000077350009     1.027401804623    15.994914619570

  Running in c1 symmetry.

  Rotational constants: A =      0.19854  B =      0.16229  C =      0.14678 [cm^-1]
  Rotational constants: A =   5952.01277  B =   4865.39171  C =   4400.27010 [MHz]
  Nuclear repulsion =  257.016280483542118

  Charge       = 0
  Multiplicity = 1
  Electrons    = 46
  Nalpha       = 23
  Nbeta        = 23

  ==> Algorithm <==

  SCF Algorithm Type is DF.
  DIIS enabled.
  MOM disabled.
  Fractional occupation disabled.
  Guess Type is SAD.
  Energy threshold   = 1.00e-10
  Density threshold  = 1.00e-10
  Integral threshold = 0.00e+00

  ==> Primary Basis <==

  Basis Set: PCSEG-0
    Blend: PCSEG-0
    Number of shells: 42
    Number of basis function: 66
    Number of Cartesian functions: 66
    Spherical Harmonics?: true
    Max angular momentum: 1

   => Loading Basis Set <=

    Name: (PCSEG-0 AUX)
    Role: JKFIT
    Keyword: DF_BASIS_SCF
    atoms 1, 4, 7, 10     entry C          line   198 file /opt/psi/4/master/share/psi4/basis/def2-universal-jkfit.gbs 
    atoms 2-3, 5-6, 8, 11 entry H          line    18 file /opt/psi/4/master/share/psi4/basis/def2-universal-jkfit.gbs 
    atoms 9, 12           entry O          line   318 file /opt/psi/4/master/share/psi4/basis/def2-universal-jkfit.gbs 

  ==> Integral Setup <==

  ==> DiskDFJK: Density-Fitted J/K Matrices <==

    J tasked:                  Yes
    K tasked:                  Yes
    wK tasked:                  No
    OpenMP threads:              4
    Integrals threads:           4
    Memory [MiB]:              375
    Algorithm:                Core
    Integral Cache:           NONE
    Schwarz Cutoff:          1E-12
    Fitting Condition:       1E-10

   => Auxiliary Basis Set <=

  Basis Set: (PCSEG-0 AUX)
    Blend: DEF2-UNIVERSAL-JKFIT
    Number of shells: 186
    Number of basis function: 562
    Number of Cartesian functions: 662
    Spherical Harmonics?: true
    Max angular momentum: 4

  Minimum eigenvalue in the overlap matrix is 1.2843466805E-03.
  Reciprocal condition number of the overlap matrix is 2.1210948252E-04.
    Using symmetric orthogonalization.

  ==> Pre-Iterations <==

  SCF Guess: Superposition of Atomic Densities via on-the-fly atomic UHF (no occupation information).

   -------------------------
    Irrep   Nso     Nmo    
   -------------------------
     A         66      66 
   -------------------------
    Total      66      66
   -------------------------

  ==> Iterations <==

                           Total Energy        Delta E     RMS |[F,P]|

   @DF-RHF iter SAD:  -303.69668783443080   -3.03697e+02   0.00000e+00 
   @DF-RHF iter   1:  -303.56575037278361    1.30937e-01   7.24072e-03 DIIS
   @DF-RHF iter   2:  -303.66480533971423   -9.90550e-02   3.96881e-03 DIIS
   @DF-RHF iter   3:  -303.69041922241013   -2.56139e-02   6.19860e-04 DIIS
   @DF-RHF iter   4:  -303.69160422605898   -1.18500e-03   1.96472e-04 DIIS
   @DF-RHF iter   5:  -303.69169999992920   -9.57739e-05   4.10598e-05 DIIS
   @DF-RHF iter   6:  -303.69170759417602   -7.59425e-06   8.38018e-06 DIIS
   @DF-RHF iter   7:  -303.69170799724242   -4.03066e-07   1.68690e-06 DIIS
   @DF-RHF iter   8:  -303.69170801134385   -1.41014e-08   5.41914e-07 DIIS
   @DF-RHF iter   9:  -303.69170801276016   -1.41631e-09   1.09352e-07 DIIS
   @DF-RHF iter  10:  -303.69170801283650   -7.63407e-11   1.85775e-08 DIIS
   @DF-RHF iter  11:  -303.69170801283872   -2.21689e-12   2.82817e-09 DIIS
   @DF-RHF iter  12:  -303.69170801283877   -5.68434e-14   8.92748e-10 DIIS
   @DF-RHF iter  13:  -303.69170801283872    5.68434e-14   2.92814e-10 DIIS
   @DF-RHF iter  14:  -303.69170801283877   -5.68434e-14   5.77287e-11 DIIS
  Energy and wave function converged.


  ==> Post-Iterations <==

    Orbital Energies [Eh]
    ---------------------

    Doubly Occupied:                                                      

       1A    -20.584527     2A    -20.584463     3A    -11.369622  
       4A    -11.369605     5A    -11.256069     6A    -11.255663  
       7A     -1.537544     8A     -1.312965     9A     -1.091859  
      10A     -1.008904    11A     -0.821921    12A     -0.790223  
      13A     -0.768276    14A     -0.680690    15A     -0.663113  
      16A     -0.658500    17A     -0.552314    18A     -0.534412  
      19A     -0.527402    20A     -0.524506    21A     -0.519594  
      22A     -0.467028    23A     -0.443257  

    Virtual:                                                              

      24A      0.203094    25A      0.231211    26A      0.236168  
      27A      0.242145    28A      0.253161    29A      0.267414  
      30A      0.314453    31A      0.350226    32A      0.350957  
      33A      0.382105    34A      0.406849    35A      0.464619  
      36A      0.570259    37A      0.796360    38A      0.807930  
      39A      0.821117    40A      0.925653    41A      0.932755  
      42A      0.947029    43A      0.950082    44A      1.003542  
      45A      1.005156    46A      1.030116    47A      1.060633  
      48A      1.072109    49A      1.134083    50A      1.148785  
      51A      1.170488    52A      1.174319    53A      1.210926  
      54A      1.238029    55A      1.424409    56A      1.455061  
      57A      1.482508    58A      1.521995    59A      1.691293  
      60A      1.705484    61A      1.927994    62A      1.950904  
      63A      2.140096    64A      2.299088    65A      2.375005  
      66A      2.441151  

    Final Occupation by Irrep:
              A 
    DOCC [    23 ]

  @DF-RHF Final Energy:  -303.69170801283877

   => Energetics <=

    Nuclear Repulsion Energy =            257.0162804835421184
    One-Electron Energy =                -922.7710616263840393
    Two-Electron Energy =                 362.0630731300031471
    Total Energy =                       -303.6917080128387738

Computation Completed

  //>>>>>>>>>>>>>>>>>>>>>>>>>>>>>>>>>>>//
  //                SCF                //
  //<<<<<<<<<<<<<<<<<<<<<<<<<<<<<<<<<<<//

   => Loading Basis Set <=

    Name: HEAVY-AUG-CC-PV(T+D)Z
    Role: ORBITAL
    Keyword: BASIS
    atoms 1, 4, 7, 10     entry C          line   273 file /opt/psi/4/master/share/psi4/basis/heavy-aug-cc-pv_tpd_z.gbs 
    atoms 2-3, 5-6, 8, 11 entry H          line    86 file /opt/psi/4/master/share/psi4/basis/heavy-aug-cc-pv_tpd_z.gbs 
    atoms 9, 12           entry O          line   365 file /opt/psi/4/master/share/psi4/basis/heavy-aug-cc-pv_tpd_z.gbs 


         ---------------------------------------------------------
                                   SCF
               by Justin Turney, Rob Parrish, Andy Simmonett
                          and Daniel G. A. Smith
                              RHF Reference
                        4 Threads,    500 MiB Core
         ---------------------------------------------------------

  ==> Geometry <==

    Molecular point group: c1
    Full point group: C1

    Geometry (in Angstrom), charge = 0, multiplicity = 1:

       Center              X                  Y                   Z               Mass       
    ------------   -----------------  -----------------  -----------------  -----------------
         C           -1.174143750690    -0.774963495581    -0.000122054786    12.000000000000
         H           -1.619161817890    -1.211058947381    -0.891063737386     1.007825032230
         H           -1.619236641990    -1.208704502843     0.890631046116     1.007825032230
         C           -1.174297984359     0.774658836031     0.000051225900    12.000000000000
         H           -1.619479399375     1.210632379362     0.890969845418     1.007825032230
         H           -1.619423379215     1.210879456075    -0.890774475949     1.007825032230
         C            0.352794965256     0.922250379456     0.000125577867    12.000000000000
         H            0.838656779139     1.892386138416     0.000270125877     1.007825032230
         O            0.767417041605     0.000189445828    -1.027349771326    15.994914619570
         C            0.353049046441    -0.922253278213    -0.000108472995    12.000000000000
         H            0.839183659692    -1.892251521546    -0.000218927626     1.007825032230
         O            0.767332595963    -0.000077350009     1.027401804623    15.994914619570

  Running in c1 symmetry.

  Rotational constants: A =      0.19854  B =      0.16229  C =      0.14678 [cm^-1]
  Rotational constants: A =   5952.01277  B =   4865.39171  C =   4400.27010 [MHz]
  Nuclear repulsion =  257.016280483542118

  Charge       = 0
  Multiplicity = 1
  Electrons    = 46
  Nalpha       = 23
  Nbeta        = 23

  ==> Algorithm <==

  SCF Algorithm Type is DF.
  DIIS enabled.
  MOM disabled.
  Fractional occupation disabled.
  Guess Type is SAD.
  Energy threshold   = 1.00e-10
  Density threshold  = 1.00e-10
  Integral threshold = 0.00e+00

  ==> Primary Basis <==

  Basis Set: HEAVY-AUG-CC-PV(T+D)Z
    Blend: HEAVY-AUG-CC-PV(T+D)Z
    Number of shells: 120
    Number of basis function: 360
    Number of Cartesian functions: 420
    Spherical Harmonics?: true
    Max angular momentum: 3

   => Loading Basis Set <=

    Name: (HEAVY-AUG-CC-PV(T+D)Z AUX)
    Role: JKFIT
    Keyword: DF_BASIS_SCF
    atoms 1, 4, 7, 10     entry C          line   200 file /opt/psi/4/master/share/psi4/basis/heavy-aug-cc-pvtz-jkfit.gbs 
    atoms 2-3, 5-6, 8, 11 entry H          line   116 file /opt/psi/4/master/share/psi4/basis/heavy-aug-cc-pvtz-jkfit.gbs 
    atoms 9, 12           entry O          line   324 file /opt/psi/4/master/share/psi4/basis/heavy-aug-cc-pvtz-jkfit.gbs 


  Computing basis projection from PCSEG-0 to HEAVY-AUG-CC-PV(T+D)Z

  ==> Integral Setup <==

  ==> DiskDFJK: Density-Fitted J/K Matrices <==

    J tasked:                  Yes
    K tasked:                  Yes
    wK tasked:                  No
    OpenMP threads:              4
    Integrals threads:           4
    Memory [MiB]:              375
    Algorithm:                Disk
    Integral Cache:           NONE
    Schwarz Cutoff:          1E-12
    Fitting Condition:       1E-10

   => Auxiliary Basis Set <=

  Basis Set: (HEAVY-AUG-CC-PV(T+D)Z AUX)
    Blend: HEAVY-AUG-CC-PVTZ-JKFIT
    Number of shells: 240
    Number of basis function: 804
    Number of Cartesian functions: 996
    Spherical Harmonics?: true
    Max angular momentum: 4

  Minimum eigenvalue in the overlap matrix is 5.5164074795E-06.
  Reciprocal condition number of the overlap matrix is 4.0325999607E-07.
    Using symmetric orthogonalization.

  ==> Pre-Iterations <==

  SCF Guess: Orbitals guess was supplied from a previous computation.

   -------------------------
    Irrep   Nso     Nmo    
   -------------------------
     A        360     360 
   -------------------------
    Total     360     360
   -------------------------

  ==> Iterations <==

                           Total Energy        Delta E     RMS |[F,P]|

   @DF-RHF iter   0:  -304.36280945223160   -3.04363e+02   4.15948e-03 
   @DF-RHF iter   1:  -304.71637832470566   -3.53569e-01   5.72512e-04 DIIS
   @DF-RHF iter   2:  -304.73154007236076   -1.51617e-02   2.71801e-04 DIIS
   @DF-RHF iter   3:  -304.73523257298314   -3.69250e-03   4.87285e-05 DIIS
   @DF-RHF iter   4:  -304.73549644523587   -2.63872e-04   1.57914e-05 DIIS
   @DF-RHF iter   5:  -304.73551749461029   -2.10494e-05   6.25262e-06 DIIS
   @DF-RHF iter   6:  -304.73552139242639   -3.89782e-06   1.42027e-06 DIIS
   @DF-RHF iter   7:  -304.73552165796872   -2.65542e-07   3.12629e-07 DIIS
   @DF-RHF iter   8:  -304.73552167219407   -1.42253e-08   7.97112e-08 DIIS
   @DF-RHF iter   9:  -304.73552167312766   -9.33596e-10   2.59199e-08 DIIS
   @DF-RHF iter  10:  -304.73552167321253   -8.48672e-11   6.47503e-09 DIIS
   @DF-RHF iter  11:  -304.73552167321918   -6.65068e-12   1.69415e-09 DIIS
   @DF-RHF iter  12:  -304.73552167321975   -5.68434e-13   4.85682e-10 DIIS
   @DF-RHF iter  13:  -304.73552167321986   -1.13687e-13   1.15192e-10 DIIS
   @DF-RHF iter  14:  -304.73552167321941    4.54747e-13   5.68992e-11 DIIS
  Energy and wave function converged.


  ==> Post-Iterations <==

    Orbital Energies [Eh]
    ---------------------

    Doubly Occupied:                                                      

       1A    -20.568127     2A    -20.568090     3A    -11.349650  
       4A    -11.349617     5A    -11.237608     6A    -11.237036  
       7A     -1.491626     8A     -1.293008     9A     -1.067730  
      10A     -0.988199    11A     -0.810400    12A     -0.789709  
      13A     -0.746552    14A     -0.672372    15A     -0.651332  
      16A     -0.646543    17A     -0.534228    18A     -0.524434  
      19A     -0.519310    20A     -0.512076    21A     -0.510008  
      22A     -0.459462    23A     -0.433499  

    Virtual:                                                              

      24A      0.050344    25A      0.050955    26A      0.059704  
      27A      0.072059    28A      0.073410    29A      0.092447  
      30A      0.093546    31A      0.096699    32A      0.116611  
      33A      0.126307    34A      0.127403    35A      0.130076  
      36A      0.162103    37A      0.176070    38A      0.195266  
      39A      0.204136    40A      0.206509    41A      0.214126  
      42A      0.220404    43A      0.228366    44A      0.233849  
      45A      0.249375    46A      0.268496    47A      0.268602  
      48A      0.277119    49A      0.295373    50A      0.300770  
      51A      0.312921    52A      0.331193    53A      0.335331  
      54A      0.341785    55A      0.347764    56A      0.356342  
      57A      0.356988    58A      0.362626    59A      0.374769  
      60A      0.397669    61A      0.404444    62A      0.412733  
      63A      0.421310    64A      0.432383    65A      0.446440  
      66A      0.457855    67A      0.465026    68A      0.485327  
      69A      0.492980    70A      0.503865    71A      0.510807  
      72A      0.516668    73A      0.519782    74A      0.527017  
      75A      0.528729    76A      0.543684    77A      0.545935  
      78A      0.580872    79A      0.591983    80A      0.608335  
      81A      0.613192    82A      0.620764    83A      0.653761  
      84A      0.658722    85A      0.673166    86A      0.722140  
      87A      0.735887    88A      0.747565    89A      0.753878  
      90A      0.770274    91A      0.781012    92A      0.791230  
      93A      0.797147    94A      0.815617    95A      0.818647  
      96A      0.828103    97A      0.843969    98A      0.877716  
      99A      0.891361   100A      0.926942   101A      0.928729  
     102A      0.938705   103A      0.946023   104A      0.970374  
     105A      0.985540   106A      0.998683   107A      1.032130  
     108A      1.037363   109A      1.038612   110A      1.060378  
     111A      1.082301   112A      1.096595   113A      1.114181  
     114A      1.120771   115A      1.138276   116A      1.160743  
     117A      1.185524   118A      1.222869   119A      1.247403  
     120A      1.251788   121A      1.261122   122A      1.283421  
     123A      1.321675   124A      1.329836   125A      1.335786  
     126A      1.352862   127A      1.373502   128A      1.383831  
     129A      1.398683   130A      1.403701   131A      1.415138  
     132A      1.446506   133A      1.447644   134A      1.458065  
     135A      1.483402   136A      1.499252   137A      1.505820  
     138A      1.528544   139A      1.546530   140A      1.560234  
     141A      1.581687   142A      1.586436   143A      1.587151  
     144A      1.589215   145A      1.599926   146A      1.654154  
     147A      1.656756   148A      1.670283   149A      1.677162  
     150A      1.684019   151A      1.698589   152A      1.707920  
     153A      1.715646   154A      1.731565   155A      1.735661  
     156A      1.750379   157A      1.752107   158A      1.792048  
     159A      1.799944   160A      1.806995   161A      1.822974  
     162A      1.901774   163A      1.902227   164A      1.930613  
     165A      1.939257   166A      1.949921   167A      1.984949  
     168A      1.990804   169A      2.003254   170A      2.007645  
     171A      2.027121   172A      2.046488   173A      2.055251  
     174A      2.058925   175A      2.150348   176A      2.151625  
     177A      2.209184   178A      2.252348   179A      2.300673  
     180A      2.333058   181A      2.392417   182A      2.401329  
     183A      2.419773   184A      2.443672   185A      2.451153  
     186A      2.472178   187A      2.504715   188A      2.508437  
     189A      2.540615   190A      2.579799   191A      2.628566  
     192A      2.646878   193A      2.682215   194A      2.686017  
     195A      2.723841   196A      2.769148   197A      2.787540  
     198A      2.875381   199A      2.875787   200A      2.891092  
     201A      2.914392   202A      2.921334   203A      2.954032  
     204A      2.959070   205A      2.964003   206A      3.076788  
     207A      3.098019   208A      3.119384   209A      3.127896  
     210A      3.181127   211A      3.186696   212A      3.204295  
     213A      3.215811   214A      3.240587   215A      3.261442  
     216A      3.306566   217A      3.332607   218A      3.408660  
     219A      3.412034   220A      3.414692   221A      3.434553  
     222A      3.441106   223A      3.471914   224A      3.484308  
     225A      3.500968   226A      3.524270   227A      3.538639  
     228A      3.602645   229A      3.626570   230A      3.630563  
     231A      3.666877   232A      3.683051   233A      3.695583  
     234A      3.706174   235A      3.728538   236A      3.730232  
     237A      3.749913   238A      3.816191   239A      3.832897  
     240A      3.843103   241A      3.866037   242A      3.873847  
     243A      3.926800   244A      3.952271   245A      3.959957  
     246A      3.961427   247A      3.964569   248A      4.004000  
     249A      4.018493   250A      4.048902   251A      4.053630  
     252A      4.073937   253A      4.106110   254A      4.111865  
     255A      4.145084   256A      4.163584   257A      4.169813  
     258A      4.180214   259A      4.185793   260A      4.212076  
     261A      4.235141   262A      4.245131   263A      4.258548  
     264A      4.264275   265A      4.268104   266A      4.316192  
     267A      4.343568   268A      4.365968   269A      4.424523  
     270A      4.471405   271A      4.479547   272A      4.481999  
     273A      4.495904   274A      4.511558   275A      4.526621  
     276A      4.552348   277A      4.583672   278A      4.638356  
     279A      4.688447   280A      4.689673   281A      4.702197  
     282A      4.706280   283A      4.731100   284A      4.743939  
     285A      4.756026   286A      4.806214   287A      4.820730  
     288A      4.821426   289A      4.837973   290A      4.886108  
     291A      4.908251   292A      4.957987   293A      4.963551  
     294A      4.964636   295A      5.096749   296A      5.117775  
     297A      5.125511   298A      5.190782   299A      5.194510  
     300A      5.239182   301A      5.266695   302A      5.282325  
     303A      5.394666   304A      5.417603   305A      5.435459  
     306A      5.465216   307A      5.472750   308A      5.581029  
     309A      5.582659   310A      5.596525   311A      5.654057  
     312A      5.705412   313A      5.713542   314A      5.717525  
     315A      5.862474   316A      5.869287   317A      5.897920  
     318A      5.925949   319A      6.060763   320A      6.123283  
     321A      6.140896   322A      6.205996   323A      6.240992  
     324A      6.281618   325A      6.284519   326A      6.347839  
     327A      6.384316   328A      6.492905   329A      6.559952  
     330A      6.901574   331A      6.901612   332A      6.939469  
     333A      6.962605   334A      6.996073   335A      7.024369  
     336A      7.104676   337A      7.128452   338A      7.172236  
     339A      7.189361   340A      7.226295   341A      7.238197  
     342A      7.389187   343A      7.488073   344A      7.587908  
     345A      7.608667   346A      7.634328   347A      7.736831  
     348A      7.793206   349A      7.820841   350A      7.910764  
     351A      8.038036   352A      8.194520   353A      8.219645  
     354A      8.226950   355A     14.244866   356A     15.447031  
     357A     15.553880   358A     15.868614   359A     17.393844  
     360A     18.714120  

    Final Occupation by Irrep:
              A 
    DOCC [    23 ]

  @DF-RHF Final Energy:  -304.73552167321941

   => Energetics <=

    Nuclear Repulsion Energy =            257.0162804835421184
    One-Electron Energy =                -925.5823768108650711
    Two-Electron Energy =                 363.8305746541035433
    Total Energy =                       -304.7355216732194094

Computation Completed


Properties will be evaluated at   0.000000,   0.000000,   0.000000 [a0]

Properties computed using the SCF density matrix

  Nuclear Dipole Moment: [e a0]
     X:    -4.4920      Y:     0.0018      Z:    -0.0002

  Electronic Dipole Moment: [e a0]
     X:     3.7195      Y:    -0.0019      Z:     0.0004

  Dipole Moment: [e a0]
     X:    -0.7725      Y:    -0.0001      Z:     0.0002     Total:     0.7725

  Dipole Moment: [D]
     X:    -1.9635      Y:    -0.0004      Z:     0.0006     Total:     1.9635


*** tstop() called on n076 at Mon Jun  8 14:57:19 2020
Module time:
	user time   =      36.59 seconds =       0.61 minutes
	system time =       2.05 seconds =       0.03 minutes
	total time  =         11 seconds =       0.18 minutes
Total time:
	user time   =     215.17 seconds =       3.59 minutes
	system time =       8.26 seconds =       0.14 minutes
	total time  =         59 seconds =       0.98 minutes

*** tstart() called on n076
*** at Mon Jun  8 14:57:19 2020


  //>>>>>>>>>>>>>>>>>>>>>>>>>>>>>>>>>>>//
  //               DFMP2               //
  //<<<<<<<<<<<<<<<<<<<<<<<<<<<<<<<<<<<//

   => Loading Basis Set <=

    Name: (HEAVY-AUG-CC-PV(T+D)Z AUX)
    Role: RIFIT
    Keyword: DF_BASIS_MP2
    atoms 1, 4, 7, 10     entry C          line   148 file /opt/psi/4/master/share/psi4/basis/heavy-aug-cc-pvtz-ri.gbs 
    atoms 2-3, 5-6, 8, 11 entry H          line    44 file /opt/psi/4/master/share/psi4/basis/heavy-aug-cc-pvtz-ri.gbs 
    atoms 9, 12           entry O          line   264 file /opt/psi/4/master/share/psi4/basis/heavy-aug-cc-pvtz-ri.gbs 

	 --------------------------------------------------------
	                          DF-MP2                         
	      2nd-Order Density-Fitted Moller-Plesset Theory     
	              RMP2 Wavefunction,   4 Threads             
	                                                         
	        Rob Parrish, Justin Turney, Andy Simmonett,      
	           Ed Hohenstein, and C. David Sherrill          
	 --------------------------------------------------------

   => Auxiliary Basis Set <=

  Basis Set: (HEAVY-AUG-CC-PV(T+D)Z AUX)
    Blend: HEAVY-AUG-CC-PVTZ-RI
    Number of shells: 228
    Number of basis function: 816
    Number of Cartesian functions: 1026
    Spherical Harmonics?: true
    Max angular momentum: 4

	 --------------------------------------------------------
	                 NBF =   360, NAUX =   816
	 --------------------------------------------------------
	   CLASS    FOCC     OCC    AOCC    AVIR     VIR    FVIR
	   PAIRS       6      23      17     337     337       0
	 --------------------------------------------------------

	-----------------------------------------------------------
	 ==================> DF-MP2 Energies <==================== 
	-----------------------------------------------------------
	 Reference Energy          =    -304.7355216732194094 [Eh]
	 Singles Energy            =      -0.0000000000000000 [Eh]
	 Same-Spin Energy          =      -0.2854813937535368 [Eh]
	 Opposite-Spin Energy      =      -0.8633074433009162 [Eh]
	 Correlation Energy        =      -1.1487888370544530 [Eh]
	 Total Energy              =    -305.8843105102738491 [Eh]
	-----------------------------------------------------------
	 ================> DF-SCS-MP2 Energies <================== 
	-----------------------------------------------------------
	 SCS Same-Spin Scale       =       0.3333333333333333 [-]
	 SCS Opposite-Spin Scale   =       1.2000000000000000 [-]
	 SCS Same-Spin Energy      =      -0.0951604645845122 [Eh]
	 SCS Opposite-Spin Energy  =      -1.0359689319610994 [Eh]
	 SCS Correlation Energy    =      -1.1311293965456117 [Eh]
	 SCS Total Energy          =    -305.8666510697649983 [Eh]
	-----------------------------------------------------------


*** tstop() called on n076 at Mon Jun  8 14:57:20 2020
Module time:
	user time   =       6.86 seconds =       0.11 minutes
	system time =       0.08 seconds =       0.00 minutes
	total time  =          1 seconds =       0.02 minutes
Total time:
	user time   =     222.03 seconds =       3.70 minutes
	system time =       8.34 seconds =       0.14 minutes
	total time  =         60 seconds =       1.00 minutes

========================OPTAVC-XTPL==========================

MP2/TZ correlation energy -1.148788837054453

=============================================================

    Psi4 stopped on: Monday, 08 June 2020 02:57PM
    Psi4 wall time for execution: 0:01:00.08

*** Psi4 exiting successfully. Buy a developer a beer!
