
 Primary working directories    : /tmp/320938.69.gen4.q
 Secondary working directories  : /tmp/320938.69.gen4.q
 Wavefunction directory         : /home/vulcan/mel64643/wfu/
 Main file repository           : /tmp/320938.69.gen4.q/

 ARCHNAME  : Linux/x86_64
 FC        : /opt/intel/compilers_and_libraries_2016.1.150/linux/bin/intel64/ifort
 FCVERSION : 16.0.1
 BLASLIB   : -mkl
 id        : ccgc

 Nodes     nprocs
 n056         3
 Number of processes for MPI-2 version of Molpro:   nprocs(total)=    4   nprocs(compute)=    3   nprocs(helper)=    1
 ga_uses_ma=false, calling ma_init with nominal heap.
 GA-space will be limited to   8.0 MW (determined by -G option)

 Using customized tuning parameters: mindgm=10; mindgv=16; mindgc=4; mindgr=1; noblas=0; mincuda=1000; minvec=7
 default implementation of scratch files=sf  

 ***,Frequencies for min3
 memory,1000,m
 gthresh,energy=1.0d-10,orbital=1.0d-10,oneint=1.0d-16,twoint=1.0d-16,optgrad=1.0d-6,compress=1.0d-13
 geomtyp=xyz
 
  geometry = {
  12
  arbitrary comment
     C    1.776964391707    0.711398808326   -0.047331391796
     C    0.491811976407   -0.059992870174   -0.196493901896
     C    0.450332819107   -1.536294019674    0.101417522804
     O   -0.560767745493    0.726744417969    0.254406953019
     O   -1.837847230631    0.092566082076   -0.120516324204
     H    2.582958579941    0.211831743793   -0.611291273628
     H    1.660889263986    1.743278840411   -0.426655605432
     H    2.095462671952    0.774621798998    1.017687062063
     H   -0.504432091491   -1.982355534449   -0.219916709163
     H    1.282349684430   -2.046812071088   -0.416831677563
     H    0.562104483118   -1.718570366120    1.194967985386
     H   -1.987539554236    0.551164185075   -0.967276291756
  }
 
 basis=cc-pvdz
 {rhf;maxit,200}
 {uccsd(t);maxit,200}

 Variables initialized (661), CPU time= 0.00 sec
 Commands  initialized (458), CPU time= 0.01 sec, 486 directives.
 Default parameters read. Elapsed time= 0.05 sec

 Checking input...
 Passed
1


                                         ***  PROGRAM SYSTEM MOLPRO  ***
                         Copyright, University College Cardiff Consultants Limited, 2008

                                    Version 2010.1 linked May 16 2016 07:17:05


 **********************************************************************************************************************************
 LABEL *   Frequencies for min3                                                          
 Linux-4.4.3/n056(x86_64) 64 bit mpp version                                             DATE: 07-Mar-20          TIME: 01:21:50  
 **********************************************************************************************************************************

 SHA1:             9e8077add272b0f3cad6f7df79ec5211205f459d
 **********************************************************************************************************************************

 THRESHOLDS:

 ZERO    =  1.00D-12  ONEINT  =  1.00D-16  TWOINT  =  1.00D-16  PREFAC  =  1.00D-14  LOCALI  =  1.00D-09  EORDER  =  1.00D-04
 ENERGY  =  1.00D-10  ETEST   =  0.00D+00  EDENS   =  0.00D+00  THRDEDEF=  1.00D-06  GRADIENT=  1.00D-02  STEP    =  1.00D-03
 ORBITAL =  1.00D-10  CIVEC   =  1.00D-05  COEFF   =  1.00D-04  PRINTCI =  5.00D-02  PUNCHCI =  9.90D+01  OPTGRAD =  1.00D-06
 OPTENERG=  1.00D-06  OPTSTEP =  3.00D-04  THRGRAD =  1.00D-10  COMPRESS=  1.00D-13  VARMIN  =  1.00D-07  VARMAX  =  1.00D-03
 THRDOUB =  0.00D+00  THRDIV  =  1.00D-05  THRRED  =  1.00D-07  THRPSP  =  1.00D+00  THRDC   =  1.00D-10  THRCS   =  1.00D-10
 THRNRM  =  1.00D-08  THREQ   =  0.00D+00  THRDE   =  1.00D+00  THRREF  =  1.00D-05  SPARFAC =  1.00D+00  THRDLP  =  1.00D-07
 THRDIA  =  1.00D-10  THRDLS  =  1.00D-07  THRGPS  =  0.00D+00  THRKEX  =  0.00D+00  THRDIS  =  2.00D-01  THRVAR  =  1.00D-10
 THRLOC  =  1.00D-06  THRGAP  =  1.00D-06  THRLOCT = -1.00D+00  THRGAPT = -1.00D+00  THRORB  =  1.00D-06  THRMLTP =  0.00D+00
 THRCPQCI=  1.00D-10  KEXTA   =  0.00D+00  THRCOARS=  0.00D+00  SYMTOL  =  1.00D-06  GRADTOL =  1.00D-06  THROVL  =  1.00D-08
 THRORTH =  1.00D-08  GRID    =  1.00D-06  GRIDMAX =  1.00D-03  DTMAX   =  0.00D+00

 SETTING GEOMTYP        =    XYZ

 Variable memory set to 1000000000 words,  buffer space   230000 words

 SETTING BASIS          =    CC-PVDZ


 Recomputing integrals since basis changed


 Using spherical harmonics

 Library entry C      S cc-pVDZ              selected for orbital group  1
 Library entry C      P cc-pVDZ              selected for orbital group  1
 Library entry C      D cc-pVDZ              selected for orbital group  1
 Library entry O      S cc-pVDZ              selected for orbital group  2
 Library entry O      P cc-pVDZ              selected for orbital group  2
 Library entry O      D cc-pVDZ              selected for orbital group  2
 Library entry H      S cc-pVDZ              selected for orbital group  3
 Library entry H      P cc-pVDZ              selected for orbital group  3

1PROGRAM * SEWARD (Integral evaluation for generally contracted gaussian basis sets)     Author: Roland Lindh, 1990

 Geometry written to block  1 of record 700


 Point group  C1  



 ATOMIC COORDINATES

 NR  ATOM    CHARGE       X              Y              Z

   1  C       6.00    3.357976046    1.344348918   -0.089443368
   2  C       6.00    0.929389944   -0.113370094   -0.371319661
   3  C       6.00    0.851005696   -2.903174955    0.191651343
   4  O       8.00   -1.059697462    1.373347918    0.480759467
   5  O       8.00   -3.473027937    0.174924544   -0.227742847
   6  H       1.00    4.881084325    0.400303982   -1.155173094
   7  H       1.00    3.138625844    3.294319579   -0.806262247
   8  H       1.00    3.959850569    1.463823056    1.923149835
   9  H       1.00   -0.953238505   -3.746109055   -0.415582352
  10  H       1.00    2.423289708   -3.867914257   -0.787697713
  11  H       1.00    1.062223530   -3.247627330    2.258162228
  12  H       1.00   -3.755905433    1.041549363   -1.827887285

 Bond lengths in Bohr (Angstrom)

 1-2  2.846476668  1-6  2.084912353  1-7  2.089097747  1-8  2.104057606  2-3  2.847119878
     ( 1.506290578)     ( 1.103288100)     ( 1.105502915)     ( 1.113419332)     ( 1.506630951)

  2- 4  2.625421489   3- 9  2.081962486   3-10  2.088521848   3-11  2.105641862   4- 5  2.786100876
       ( 1.389313216)       ( 1.101727098)       ( 1.105198163)       ( 1.114257684)       ( 1.474341086)

  5-12  1.841608122
       ( 0.974537046)

 Bond angles

  1-2-3  120.37866573   1-2-4  108.92084440   2-1-6  109.92473045   2-1-7  110.75956662

  2- 1- 8  111.58366842   2- 3- 9  111.27908821   2- 3-10  109.82682492   2- 3-11  110.58456904

  2- 4- 5  109.27757305   3- 2- 4  118.02427572   4- 5-12   98.71914207   6- 1- 7  108.90234671

  6- 1- 8  107.79907479   7- 1- 8  107.77270731   9- 3-10  109.18455505   9- 3-11  107.87503644

 10- 3-11  108.00653133

 NUCLEAR CHARGE:                   41
 NUMBER OF PRIMITIVE AOS:         184
 NUMBER OF SYMMETRY AOS:          179
 NUMBER OF CONTRACTIONS:          105   ( 105A   )
 NUMBER OF CORE ORBITALS:           5   (   5A   )
 NUMBER OF VALENCE ORBITALS:       27   (  27A   )


 NUCLEAR REPULSION ENERGY  183.24319188


 Eigenvalues of metric

         1 0.345E-02 0.435E-02 0.105E-01 0.141E-01 0.182E-01 0.214E-01 0.331E-01 0.345E-01


 Contracted 2-electron integrals neglected if value below      1.0D-16
 AO integral compression algorithm  1   Integral accuracy      1.0D-16

     127.402 MB (compressed) written to integral file ( 93.4%)

     Node minimum: 34.603 MB, node maximum: 55.837 MB


 NUMBER OF SORTED TWO-ELECTRON INTEGRALS:    5164320.     BUFFER LENGTH:  32768
 NUMBER OF SEGMENTS:   1  SEGMENT LENGTH:    5164320      RECORD LENGTH: 524288

 Memory used in sort:       5.72 MW

 SORT1 READ    17075629. AND WROTE     5136026. INTEGRALS IN     15 RECORDS. CPU TIME:     0.35 SEC, REAL TIME:     0.40 SEC
 SORT2 READ    15396999. AND WROTE    15487395. INTEGRALS IN    396 RECORDS. CPU TIME:     0.11 SEC, REAL TIME:     0.15 SEC

 Node minimum:     5160610.  Node maximum:     5164320. integrals

 OPERATOR DM      FOR CENTER  0  COORDINATES:    0.000000    0.000000    0.000000


 **********************************************************************************************************************************
 DATASETS  * FILE   NREC   LENGTH (MB)   RECORD NAMES
              1      18        3.17       500      610      700      900      950      970     1000      129      960     1100   
                                          VAR    BASINP    GEOM    SYMINP    ZMAT    AOBASIS   BASIS     P2S    ABASIS      S 
                                         1400     1410     1200     1210     1080     1600     1650     1700   
                                           T        V       H0       H01     AOSYM     SMH    MOLCAS    OPER   

 PROGRAMS   *        TOTAL       INT
 CPU TIMES  *         1.32      1.28
 REAL TIME  *         1.78 SEC
 DISK USED  *       317.55 MB      
 GA USED    *         0.00 MB       (max)       0.00 MB       (current)
 **********************************************************************************************************************************

1PROGRAM * RHF-SCF (OPEN SHELL)       Authors: W. Meyer, H.-J. Werner


 NUMBER OF ELECTRONS:      21+   20-    SPACE SYMMETRY=1    SPIN SYMMETRY: Doublet 
 CONVERGENCE THRESHOLDS:    1.00E-10 (Density)    1.00E-11 (Energy)
 MAX. NUMBER OF ITERATIONS:      200
 INTERPOLATION TYPE:            DIIS
 INTERPOLATION STEPS:              2 (START)      1 (STEP)
 LEVEL SHIFTS:                 -0.30 (CLOSED)  0.00 (OPEN) 



 Orbital guess generated from atomic densities. Full valence occupancy:   32

 Molecular orbital dump at record        2100.2

 ITERATION    DDIFF          GRAD             ENERGY        2-EL.EN.            DIPOLE MOMENTS         DIIS
    1      0.000D+00      0.000D+00      -267.17833050    555.857421    0.56924    0.05078   -0.74907    0
    2      0.000D+00      0.617D-02      -267.24900715    555.779734    0.41416   -0.13049   -0.59901    1
    3      0.928D-02      0.214D-02      -267.26117312    555.697244    0.39393   -0.05887   -0.62644    2
    4      0.336D-02      0.912D-03      -267.26477542    555.849688    0.37949   -0.09913   -0.64289    3
    5      0.186D-02      0.363D-03      -267.26534317    555.821048    0.38208   -0.09271   -0.63590    4
    6      0.792D-03      0.110D-03      -267.26541934    555.807268    0.38036   -0.09253   -0.63864    5
    7      0.277D-03      0.510D-04      -267.26543937    555.804278    0.37966   -0.09228   -0.63813    6
    8      0.143D-03      0.272D-04      -267.26544539    555.802321    0.37994   -0.09240   -0.63834    7
    9      0.921D-04      0.115D-04      -267.26544631    555.802637    0.38013   -0.09236   -0.63809    8
   10      0.365D-04      0.500D-05      -267.26544646    555.803246    0.38038   -0.09237   -0.63816    9
   11      0.146D-04      0.196D-05      -267.26544649    555.803088    0.38043   -0.09236   -0.63816    9
   12      0.648D-05      0.668D-06      -267.26544649    555.803223    0.38045   -0.09236   -0.63816    9
   13      0.226D-05      0.225D-06      -267.26544649    555.803139    0.38046   -0.09236   -0.63816    9
   14      0.630D-06      0.753D-07      -267.26544649    555.803148    0.38046   -0.09237   -0.63816    9
   15      0.191D-06      0.298D-07      -267.26544649    555.803143    0.38046   -0.09237   -0.63816    9
   16      0.819D-07      0.144D-07      -267.26544649    555.803145    0.38046   -0.09237   -0.63816    9
   17      0.370D-07      0.744D-08      -267.26544649    555.803145    0.38046   -0.09237   -0.63816    9
   18      0.220D-07      0.339D-08      -267.26544649    555.803145    0.38046   -0.09237   -0.63816    9
   19      0.113D-07      0.132D-08      -267.26544649    555.803145    0.38046   -0.09237   -0.63816    9
   20      0.441D-08      0.561D-09      -267.26544649    555.803145    0.38046   -0.09237   -0.63816    9
   21      0.164D-08      0.283D-09      -267.26544649    555.803145    0.38046   -0.09237   -0.63816    9
   22      0.745D-09      0.160D-09      -267.26544649    555.803145    0.38046   -0.09237   -0.63816    9
   23      0.441D-09      0.787D-10      -267.26544649    555.803145    0.38046   -0.09237   -0.63816    9
   24      0.261D-09      0.313D-10      -267.26544649    555.803145    0.38046   -0.09237   -0.63816    9
   25      0.921D-10      0.128D-10      -267.26544649    555.803145    0.38046   -0.09237   -0.63816    0

 Final alpha occupancy:  21
 Final beta  occupancy:  20

 !RHF STATE 1.1 Energy               -267.265446490796
 Nuclear energy                       183.24319188
 One-electron energy                 -728.41021095
 Two-electron energy                  277.90157258
 Virial quotient                       -1.00154199
 !RHF STATE 1.1 Dipole moment           0.38045931    -0.09236625    -0.63815850
 Dipole moment /Debye                   0.96696777    -0.23475621    -1.62193087

 Orbital energies:

         1.1          2.1          3.1          4.1          5.1          6.1          7.1          8.1          9.1         10.1
    -20.630396   -20.628818   -11.279203   -11.237711   -11.232142    -1.470315    -1.240712    -1.023273    -0.945442    -0.768563

        11.1         12.1         13.1         14.1         15.1         16.1         17.1         18.1         19.1         20.1
     -0.704600    -0.643076    -0.626891    -0.588726    -0.545196    -0.543458    -0.539244    -0.516936    -0.492997    -0.469722

        21.1         22.1         23.1
     -0.352225     0.181290     0.183661


 **********************************************************************************************************************************
 DATASETS  * FILE   NREC   LENGTH (MB)   RECORD NAMES
              1      18        3.17       500      610      700      900      950      970     1000      129      960     1100   
                                          VAR    BASINP    GEOM    SYMINP    ZMAT    AOBASIS   BASIS     P2S    ABASIS      S 
                                         1400     1410     1200     1210     1080     1600     1650     1700   
                                           T        V       H0       H01     AOSYM     SMH    MOLCAS    OPER   

              2       3        0.77       700     1000     2100   
                                         GEOM     BASIS     RHF  

 PROGRAMS   *        TOTAL       RHF       INT
 CPU TIMES  *         3.12      1.80      1.28
 REAL TIME  *         3.76 SEC
 DISK USED  *       334.12 MB      
 SF USED    *         0.04 MB      
 GA USED    *         0.00 MB       (max)       0.00 MB       (current)
 **********************************************************************************************************************************


1PROGRAM * CCSD (Unrestricted open-shell coupled cluster)     Authors: C. Hampel, H.-J. Werner, 1991, M. Deegan, P.J. Knowles, 1992


 Convergence thresholds:  THRVAR = 1.00D-08  THRDEN = 1.00D-10

 CCSD(T)     terms to be evaluated (factor= 1.000)


 Number of core orbitals:           5 (   5 )
 Number of closed-shell orbitals:  15 (  15 )
 Number of active  orbitals:        1 (   1 )
 Number of external orbitals:      84 (  84 )

 Memory could be reduced to 24.91 Mwords without degradation in triples

 Number of N-1 electron functions:              31
 Number of N-2 electron functions:             465
 Number of singly external CSFs:              2635
 Number of doubly external CSFs:           2537250
 Total number of CSFs:                     2539885

 Molecular orbitals read from record     2100.2  Type=RHF/CANONICAL (state 1.1)

 Integral transformation finished. Total CPU:   1.25 sec, npass=  1  Memory used:  12.63 MW

 Starting RMP2 calculation

 ITER.      SQ.NORM     CORR.ENERGY   TOTAL ENERGY   ENERGY CHANGE        DEN1      VAR(S)    VAR(P)  DIIS     TIME
   1      1.24297584    -0.78633401  -268.05178050    -0.78633401    -0.00304863  0.20D-04  0.11D-02  1  1     1.69
   2      1.24561565    -0.78962171  -268.05506820    -0.00328770    -0.00000474  0.54D-06  0.19D-05  2  2     2.06
   3      1.24568115    -0.78966375  -268.05511024    -0.00004204    -0.00000003  0.16D-07  0.68D-08  3  3     2.46
   4      1.24568210    -0.78966375  -268.05511024    -0.00000000    -0.00000000  0.27D-09  0.38D-10  4  4     2.89
   5      1.24568219    -0.78966378  -268.05511028    -0.00000003    -0.00000000  0.25D-11  0.65D-12  5  5     3.35
   6      1.24568220    -0.78966379  -268.05511028    -0.00000001    -0.00000000  0.28D-13  0.87D-14  6  6     3.84
   7      1.24568220    -0.78966379  -268.05511028     0.00000000    -0.00000000  0.47D-15  0.12D-15  6  1     4.33
   8      1.24568220    -0.78966379  -268.05511028     0.00000000    -0.00000000  0.59D-17  0.13D-17  6  2     4.83

 Norm of t1 vector:      0.03893231      S-energy:    -0.00227160      T1 diagnostic:  0.00055033
 Norm of t2 vector:      0.49413204      P-energy:    -0.78739219
                                         Alpha-Beta:  -0.59337386
                                         Alpha-Alpha: -0.10093983
                                         Beta-Beta:   -0.09307850

 Spin contamination <S**2-Sz**2-Sz>     0.00104050
  Reference energy                   -267.265446490797
  RHF-RMP2 correlation energy          -0.789663789733
 !RHF-RMP2 energy                    -268.055110280530

 Starting UCCSD calculation

 ITER.      SQ.NORM     CORR.ENERGY   TOTAL ENERGY   ENERGY CHANGE        DEN1      VAR(S)    VAR(P)  DIIS     TIME
   1      1.26274809    -0.80901137  -268.07445786    -0.80901137    -0.02514807  0.38D-02  0.59D-02  1  1    12.46
   2      1.29150800    -0.83641239  -268.10185888    -0.02740102    -0.00200981  0.22D-03  0.66D-03  2  2    20.20
   3      1.30144242    -0.84090757  -268.10635406    -0.00449518    -0.00032450  0.19D-03  0.56D-04  3  3    27.82
   4      1.30635295    -0.84238380  -268.10783029    -0.00147624    -0.00007208  0.43D-04  0.14D-04  4  4    35.53
   5      1.30908301    -0.84277193  -268.10821842    -0.00038813    -0.00002366  0.19D-04  0.32D-05  5  5    43.32
   6      1.31102203    -0.84297639  -268.10842288    -0.00020446    -0.00000645  0.42D-05  0.12D-05  6  6    51.19
   7      1.31197057    -0.84303516  -268.10848165    -0.00005877    -0.00000207  0.14D-05  0.37D-06  6  2    58.70
   8      1.31241103    -0.84307775  -268.10852425    -0.00004259    -0.00000065  0.45D-06  0.11D-06  6  1    66.46
   9      1.31259560    -0.84308231  -268.10852880    -0.00000456    -0.00000022  0.15D-06  0.35D-07  6  4    74.22
  10      1.31265841    -0.84308522  -268.10853171    -0.00000291    -0.00000005  0.34D-07  0.95D-08  6  3    81.01
  11      1.31268777    -0.84308396  -268.10853046     0.00000126    -0.00000002  0.13D-07  0.28D-08  6  5    88.78
  12      1.31269809    -0.84308370  -268.10853019     0.00000026    -0.00000000  0.26D-08  0.95D-09  6  6    96.55
  13      1.31269693    -0.84308279  -268.10852928     0.00000091    -0.00000000  0.96D-09  0.28D-09  6  2   104.37
  14      1.31269172    -0.84308195  -268.10852844     0.00000084    -0.00000000  0.21D-09  0.67D-10  6  1   112.11
  15      1.31268765    -0.84308136  -268.10852785     0.00000059    -0.00000000  0.78D-10  0.19D-10  6  4   119.80
  16      1.31268448    -0.84308098  -268.10852747     0.00000038    -0.00000000  0.28D-10  0.62D-11  6  3   127.56
  17      1.31268228    -0.84308074  -268.10852723     0.00000024    -0.00000000  0.10D-10  0.24D-11  6  5   135.30
  18      1.31268138    -0.84308068  -268.10852717     0.00000006    -0.00000000  0.40D-11  0.86D-12  6  6   143.05
  19      1.31268077    -0.84308065  -268.10852714     0.00000003    -0.00000000  0.16D-11  0.37D-12  6  2   150.80
  20      1.31268046    -0.84308063  -268.10852712     0.00000001    -0.00000000  0.59D-12  0.13D-12  6  1   158.56
  21      1.31268029    -0.84308062  -268.10852711     0.00000001    -0.00000000  0.28D-12  0.57D-13  6  4   166.29
  22      1.31268017    -0.84308061  -268.10852711     0.00000001    -0.00000000  0.73D-13  0.21D-13  6  3   174.04
  23      1.31268012    -0.84308061  -268.10852710     0.00000000    -0.00000000  0.21D-13  0.62D-14  6  5   181.80
  24      1.31268011    -0.84308061  -268.10852710    -0.00000000    -0.00000000  0.67D-14  0.22D-14  6  6   189.54
  25      1.31268011    -0.84308061  -268.10852711    -0.00000000    -0.00000000  0.21D-14  0.52D-15  6  2   197.23
  26      1.31268012    -0.84308061  -268.10852711    -0.00000000    -0.00000000  0.76D-15  0.15D-15  6  1   204.96
  27      1.31268013    -0.84308062  -268.10852711    -0.00000000    -0.00000000  0.19D-15  0.62D-16  6  3   212.70
  28      1.31268013    -0.84308062  -268.10852711    -0.00000000    -0.00000000  0.29D-16  0.11D-16  6  4   220.45
  29      1.31268014    -0.84308062  -268.10852711    -0.00000000    -0.00000000  0.69D-17  0.29D-17  6  5   228.20
  30      1.31268014    -0.84308062  -268.10852711    -0.00000000    -0.00000000  0.15D-17  0.53D-18  6  6   235.91
  31      1.31268014    -0.84308062  -268.10852711    -0.00000000    -0.00000000  0.35D-18  0.10D-18  6  2   243.68

 Norm of t1 vector:      0.13869837      S-energy:    -0.00282109      T1 diagnostic:  0.01616697
                                                                       D1 diagnostic:  0.06282362
 Norm of t2 vector:      0.54170370      P-energy:    -0.84025953
                                         Alpha-Beta:  -0.66480917
                                         Alpha-Alpha: -0.09147654
                                         Beta-Beta:   -0.08397381

 Spin contamination <S**2-Sz**2-Sz>     0.00217051

 Memory could be reduced to 28.85 Mwords without degradation in triples
 

 RESULTS
 =======

  Reference energy                   -267.265446490797
  UCCSD singles energy                 -0.002821090088
  UCCSD pair energy                    -0.840259526054
  UCCSD correlation energy             -0.843080616142
  Triples (T) contribution             -0.024967505920
  Total correlation energy             -0.868048122062
 
  RHF-UCCSD energy                   -268.108527106939
  RHF-UCCSD[T] energy                -268.134829840186
  RHF-UCCSD-T energy                 -268.133073284118
 !RHF-UCCSD(T) energy                -268.133494612859

 Program statistics:

 Available memory in ccsd:               999997692
 Min. memory needed in ccsd:               7337057
 Max. memory used in ccsd:                10523002
 Max. memory used in cckext:              10867977 (31 integral passes)
 Max. memory used in cckint:              12633073 ( 1 integral passes)



 **********************************************************************************************************************************
 DATASETS  * FILE   NREC   LENGTH (MB)   RECORD NAMES
              1      18        3.17       500      610      700      900      950      970     1000      129      960     1100   
                                          VAR    BASINP    GEOM    SYMINP    ZMAT    AOBASIS   BASIS     P2S    ABASIS      S 
                                         1400     1410     1200     1210     1080     1600     1650     1700   
                                           T        V       H0       H01     AOSYM     SMH    MOLCAS    OPER   

              2       3        0.77       700     1000     2100   
                                         GEOM     BASIS     RHF  

 PROGRAMS   *        TOTAL  UCCSD(T)       RHF       INT
 CPU TIMES  *       305.54    302.41      1.80      1.28
 REAL TIME  *       318.31 SEC
 DISK USED  *         1.30 GB      
 SF USED    *       553.73 MB      
 GA USED    *         0.00 MB       (max)       0.00 MB       (current)
 **********************************************************************************************************************************

        UCCSD(T)        RHF-SCF 
   -268.13349461   -267.26544649
 **********************************************************************************************************************************
 Variable memory released
