
 Primary working directories    : /tmp/320938.356.gen4.q
 Secondary working directories  : /tmp/320938.356.gen4.q
 Wavefunction directory         : /home/vulcan/mel64643/wfu/
 Main file repository           : /tmp/320938.356.gen4.q/

 ARCHNAME  : Linux/x86_64
 FC        : /opt/intel/compilers_and_libraries_2016.1.150/linux/bin/intel64/ifort
 FCVERSION : 16.0.1
 BLASLIB   : -mkl
 id        : ccgc

 Nodes     nprocs
 n051         3
 Number of processes for MPI-2 version of Molpro:   nprocs(total)=    4   nprocs(compute)=    3   nprocs(helper)=    1
 ga_uses_ma=false, calling ma_init with nominal heap.
 GA-space will be limited to   8.0 MW (determined by -G option)

 Using customized tuning parameters: mindgm=10; mindgv=16; mindgc=4; mindgr=1; noblas=0; mincuda=1000; minvec=7
 default implementation of scratch files=sf  

 ***,Frequencies for min3
 memory,1000,m
 gthresh,energy=1.0d-10,orbital=1.0d-10,oneint=1.0d-16,twoint=1.0d-16,optgrad=1.0d-6,compress=1.0d-13
 geomtyp=xyz
 
  geometry = {
  12
  arbitrary comment
     C    1.776964391707    0.711398808326   -0.047331391796
     C    0.491811976407   -0.059992870174   -0.196493901896
     C    0.450332819107   -1.536294019674    0.101417522804
     O   -0.560767745493    0.727725457083    0.254500975190
     O   -1.837833440555    0.091971993376   -0.120547266187
     H    2.585384351352    0.210994691240   -0.609271909158
     H    1.660429469999    1.742399069410   -0.427186228367
     H    2.095475980423    0.773447875197    1.016816701500
     H   -0.505073050056   -1.983122866490   -0.220318318991
     H    1.281630527790   -2.047667301826   -0.417913530701
     H    0.562011123710   -1.719670315574    1.194215506426
     H   -1.988284224017    0.550636260788   -0.966659859155
  }
 
 basis=cc-pvdz
 {rhf;maxit,200}
 {uccsd(t);maxit,200}

 Variables initialized (661), CPU time= 0.00 sec
 Commands  initialized (458), CPU time= 0.00 sec, 486 directives.
 Default parameters read. Elapsed time= 0.05 sec

 Checking input...
 Passed
1


                                         ***  PROGRAM SYSTEM MOLPRO  ***
                         Copyright, University College Cardiff Consultants Limited, 2008

                                    Version 2010.1 linked May 16 2016 07:17:05


 **********************************************************************************************************************************
 LABEL *   Frequencies for min3                                                          
 Linux-4.4.3/n051(x86_64) 64 bit mpp version                                             DATE: 07-Mar-20          TIME: 03:03:35  
 **********************************************************************************************************************************

 SHA1:             9e8077add272b0f3cad6f7df79ec5211205f459d
 **********************************************************************************************************************************

 THRESHOLDS:

 ZERO    =  1.00D-12  ONEINT  =  1.00D-16  TWOINT  =  1.00D-16  PREFAC  =  1.00D-14  LOCALI  =  1.00D-09  EORDER  =  1.00D-04
 ENERGY  =  1.00D-10  ETEST   =  0.00D+00  EDENS   =  0.00D+00  THRDEDEF=  1.00D-06  GRADIENT=  1.00D-02  STEP    =  1.00D-03
 ORBITAL =  1.00D-10  CIVEC   =  1.00D-05  COEFF   =  1.00D-04  PRINTCI =  5.00D-02  PUNCHCI =  9.90D+01  OPTGRAD =  1.00D-06
 OPTENERG=  1.00D-06  OPTSTEP =  3.00D-04  THRGRAD =  1.00D-10  COMPRESS=  1.00D-13  VARMIN  =  1.00D-07  VARMAX  =  1.00D-03
 THRDOUB =  0.00D+00  THRDIV  =  1.00D-05  THRRED  =  1.00D-07  THRPSP  =  1.00D+00  THRDC   =  1.00D-10  THRCS   =  1.00D-10
 THRNRM  =  1.00D-08  THREQ   =  0.00D+00  THRDE   =  1.00D+00  THRREF  =  1.00D-05  SPARFAC =  1.00D+00  THRDLP  =  1.00D-07
 THRDIA  =  1.00D-10  THRDLS  =  1.00D-07  THRGPS  =  0.00D+00  THRKEX  =  0.00D+00  THRDIS  =  2.00D-01  THRVAR  =  1.00D-10
 THRLOC  =  1.00D-06  THRGAP  =  1.00D-06  THRLOCT = -1.00D+00  THRGAPT = -1.00D+00  THRORB  =  1.00D-06  THRMLTP =  0.00D+00
 THRCPQCI=  1.00D-10  KEXTA   =  0.00D+00  THRCOARS=  0.00D+00  SYMTOL  =  1.00D-06  GRADTOL =  1.00D-06  THROVL  =  1.00D-08
 THRORTH =  1.00D-08  GRID    =  1.00D-06  GRIDMAX =  1.00D-03  DTMAX   =  0.00D+00

 SETTING GEOMTYP        =    XYZ

 Variable memory set to 1000000000 words,  buffer space   230000 words

 SETTING BASIS          =    CC-PVDZ


 Recomputing integrals since basis changed


 Using spherical harmonics

 Library entry C      S cc-pVDZ              selected for orbital group  1
 Library entry C      P cc-pVDZ              selected for orbital group  1
 Library entry C      D cc-pVDZ              selected for orbital group  1
 Library entry O      S cc-pVDZ              selected for orbital group  2
 Library entry O      P cc-pVDZ              selected for orbital group  2
 Library entry O      D cc-pVDZ              selected for orbital group  2
 Library entry H      S cc-pVDZ              selected for orbital group  3
 Library entry H      P cc-pVDZ              selected for orbital group  3

1PROGRAM * SEWARD (Integral evaluation for generally contracted gaussian basis sets)     Author: Roland Lindh, 1990

 Geometry written to block  1 of record 700


 Point group  C1  



 ATOMIC COORDINATES

 NR  ATOM    CHARGE       X              Y              Z

   1  C       6.00    3.357976046    1.344348918   -0.089443368
   2  C       6.00    0.929389944   -0.113370094   -0.371319661
   3  C       6.00    0.851005696   -2.903174955    0.191651343
   4  O       8.00   -1.059697462    1.375201813    0.480937143
   5  O       8.00   -3.473001878    0.173801879   -0.227801319
   6  H       1.00    4.885668369    0.398722182   -1.151357048
   7  H       1.00    3.137756959    3.292657053   -0.807264979
   8  H       1.00    3.959875718    1.461604661    1.921505092
   9  H       1.00   -0.954449741   -3.747559103   -0.416341285
  10  H       1.00    2.421930699   -3.869530409   -0.789742120
  11  H       1.00    1.062047107   -3.249705933    2.256740249
  12  H       1.00   -3.757312655    1.040551731   -1.826722396

 Bond lengths in Bohr (Angstrom)

 1-2  2.846476668  1-6  2.087034840  1-7  2.087982016  1-8  2.102366722  2-3  2.847119878
     ( 1.506290578)     ( 1.104411271)     ( 1.104912496)     ( 1.112524554)     ( 1.506630951)

  2- 4  2.626529401   3- 9  2.083820760   3-10  2.089205916   3-11  2.104569881   4- 5  2.787419992
       ( 1.389899498)       ( 1.102710454)       ( 1.105560155)       ( 1.113690416)       ( 1.475039132)

  5-12  1.840824960
       ( 0.974122615)

 Bond angles

  1-2-3  120.37866573   1-2-4  108.89026347   2-1-6  110.00521698   2-1-7  110.72152269

  2- 1- 8  111.56445894   2- 3- 9  111.29767153   2- 3-10  109.85553613   2- 3-11  110.64673808

  2- 4- 5  109.20136088   3- 2- 4  118.05543914   4- 5-12   98.72134823   6- 1- 7  108.96953791

  6- 1- 8  107.60142692   7- 1- 8  107.87801688   9- 3-10  109.08644515   9- 3-11  107.84581499

 10- 3-11  108.02126383

 NUCLEAR CHARGE:                   41
 NUMBER OF PRIMITIVE AOS:         184
 NUMBER OF SYMMETRY AOS:          179
 NUMBER OF CONTRACTIONS:          105   ( 105A   )
 NUMBER OF CORE ORBITALS:           5   (   5A   )
 NUMBER OF VALENCE ORBITALS:       27   (  27A   )


 NUCLEAR REPULSION ENERGY  183.21766539


 Eigenvalues of metric

         1 0.345E-02 0.435E-02 0.105E-01 0.141E-01 0.182E-01 0.214E-01 0.331E-01 0.346E-01


 Contracted 2-electron integrals neglected if value below      1.0D-16
 AO integral compression algorithm  1   Integral accuracy      1.0D-16

     127.664 MB (compressed) written to integral file ( 93.2%)

     Node minimum: 34.079 MB, node maximum: 55.837 MB


 NUMBER OF SORTED TWO-ELECTRON INTEGRALS:    5164320.     BUFFER LENGTH:  32768
 NUMBER OF SEGMENTS:   1  SEGMENT LENGTH:    5164320      RECORD LENGTH: 524288

 Memory used in sort:       5.72 MW

 SORT1 READ    17075332. AND WROTE     5135905. INTEGRALS IN     15 RECORDS. CPU TIME:     0.36 SEC, REAL TIME:     0.41 SEC
 SORT2 READ    15396664. AND WROTE    15487395. INTEGRALS IN    432 RECORDS. CPU TIME:     0.10 SEC, REAL TIME:     0.16 SEC

 Node minimum:     5160610.  Node maximum:     5164320. integrals

 OPERATOR DM      FOR CENTER  0  COORDINATES:    0.000000    0.000000    0.000000


 **********************************************************************************************************************************
 DATASETS  * FILE   NREC   LENGTH (MB)   RECORD NAMES
              1      18        3.17       500      610      700      900      950      970     1000      129      960     1100   
                                          VAR    BASINP    GEOM    SYMINP    ZMAT    AOBASIS   BASIS     P2S    ABASIS      S 
                                         1400     1410     1200     1210     1080     1600     1650     1700   
                                           T        V       H0       H01     AOSYM     SMH    MOLCAS    OPER   

 PROGRAMS   *        TOTAL       INT
 CPU TIMES  *         1.40      1.35
 REAL TIME  *         1.80 SEC
 DISK USED  *       317.23 MB      
 GA USED    *         0.00 MB       (max)       0.00 MB       (current)
 **********************************************************************************************************************************

1PROGRAM * RHF-SCF (OPEN SHELL)       Authors: W. Meyer, H.-J. Werner


 NUMBER OF ELECTRONS:      21+   20-    SPACE SYMMETRY=1    SPIN SYMMETRY: Doublet 
 CONVERGENCE THRESHOLDS:    1.00E-10 (Density)    1.00E-11 (Energy)
 MAX. NUMBER OF ITERATIONS:      200
 INTERPOLATION TYPE:            DIIS
 INTERPOLATION STEPS:              2 (START)      1 (STEP)
 LEVEL SHIFTS:                 -0.30 (CLOSED)  0.00 (OPEN) 



 Orbital guess generated from atomic densities. Full valence occupancy:   32

 Molecular orbital dump at record        2100.2

 ITERATION    DDIFF          GRAD             ENERGY        2-EL.EN.            DIPOLE MOMENTS         DIIS
    1      0.000D+00      0.000D+00      -267.17820374    555.808833    0.57112    0.04830   -0.74919    0
    2      0.000D+00      0.617D-02      -267.24891211    555.729743    0.41475   -0.13201   -0.59831    1
    3      0.928D-02      0.214D-02      -267.26109827    555.647976    0.39455   -0.05988   -0.62563    2
    4      0.336D-02      0.912D-03      -267.26471179    555.800226    0.37990   -0.10001   -0.64200    3
    5      0.186D-02      0.364D-03      -267.26528199    555.771645    0.38245   -0.09348   -0.63494    4
    6      0.793D-03      0.110D-03      -267.26535863    555.757903    0.38071   -0.09327   -0.63768    5
    7      0.277D-03      0.512D-04      -267.26537887    555.754888    0.38000   -0.09301   -0.63717    6
    8      0.144D-03      0.273D-04      -267.26538498    555.752948    0.38027   -0.09312   -0.63738    7
    9      0.927D-04      0.115D-04      -267.26538590    555.753259    0.38046   -0.09308   -0.63714    8
   10      0.367D-04      0.503D-05      -267.26538606    555.753875    0.38072   -0.09309   -0.63720    9
   11      0.147D-04      0.197D-05      -267.26538608    555.753715    0.38077   -0.09309   -0.63721    9
   12      0.652D-05      0.673D-06      -267.26538609    555.753850    0.38079   -0.09309   -0.63720    9
   13      0.228D-05      0.227D-06      -267.26538609    555.753765    0.38079   -0.09309   -0.63720    9
   14      0.634D-06      0.762D-07      -267.26538609    555.753774    0.38079   -0.09309   -0.63720    9
   15      0.194D-06      0.303D-07      -267.26538609    555.753770    0.38079   -0.09309   -0.63720    9
   16      0.831D-07      0.147D-07      -267.26538609    555.753771    0.38079   -0.09309   -0.63720    9
   17      0.379D-07      0.760D-08      -267.26538609    555.753771    0.38079   -0.09309   -0.63720    9
   18      0.226D-07      0.345D-08      -267.26538609    555.753772    0.38079   -0.09309   -0.63720    9
   19      0.115D-07      0.134D-08      -267.26538609    555.753772    0.38079   -0.09309   -0.63720    9
   20      0.446D-08      0.573D-09      -267.26538609    555.753772    0.38079   -0.09309   -0.63720    9
   21      0.168D-08      0.290D-09      -267.26538609    555.753772    0.38079   -0.09309   -0.63720    9
   22      0.764D-09      0.164D-09      -267.26538609    555.753772    0.38079   -0.09309   -0.63720    9
   23      0.452D-09      0.805D-10      -267.26538609    555.753772    0.38079   -0.09309   -0.63720    9
   24      0.266D-09      0.321D-10      -267.26538609    555.753772    0.38079   -0.09309   -0.63720    9
   25      0.944D-10      0.131D-10      -267.26538609    555.753772    0.38079   -0.09309   -0.63720    0

 Final alpha occupancy:  21
 Final beta  occupancy:  20

 !RHF STATE 1.1 Energy               -267.265386087750
 Nuclear energy                       183.21766539
 One-electron energy                 -728.35993727
 Two-electron energy                  277.87688579
 Virial quotient                       -1.00155046
 !RHF STATE 1.1 Dipole moment           0.38079437    -0.09309133    -0.63720299
 Dipole moment /Debye                   0.96781937    -0.23659907    -1.61950238

 Orbital energies:

         1.1          2.1          3.1          4.1          5.1          6.1          7.1          8.1          9.1         10.1
    -20.630517   -20.628771   -11.279292   -11.237682   -11.232240    -1.469999    -1.240722    -1.023285    -0.945420    -0.768437

        11.1         12.1         13.1         14.1         15.1         16.1         17.1         18.1         19.1         20.1
     -0.704575    -0.642946    -0.626700    -0.588931    -0.545203    -0.543395    -0.539008    -0.516914    -0.493016    -0.469843

        21.1         22.1         23.1
     -0.352374     0.181290     0.183562


 **********************************************************************************************************************************
 DATASETS  * FILE   NREC   LENGTH (MB)   RECORD NAMES
              1      18        3.17       500      610      700      900      950      970     1000      129      960     1100   
                                          VAR    BASINP    GEOM    SYMINP    ZMAT    AOBASIS   BASIS     P2S    ABASIS      S 
                                         1400     1410     1200     1210     1080     1600     1650     1700   
                                           T        V       H0       H01     AOSYM     SMH    MOLCAS    OPER   

              2       3        0.77       700     1000     2100   
                                         GEOM     BASIS     RHF  

 PROGRAMS   *        TOTAL       RHF       INT
 CPU TIMES  *         3.18      1.78      1.35
 REAL TIME  *         3.79 SEC
 DISK USED  *       333.80 MB      
 SF USED    *         0.04 MB      
 GA USED    *         0.00 MB       (max)       0.00 MB       (current)
 **********************************************************************************************************************************


1PROGRAM * CCSD (Unrestricted open-shell coupled cluster)     Authors: C. Hampel, H.-J. Werner, 1991, M. Deegan, P.J. Knowles, 1992


 Convergence thresholds:  THRVAR = 1.00D-08  THRDEN = 1.00D-10

 CCSD(T)     terms to be evaluated (factor= 1.000)


 Number of core orbitals:           5 (   5 )
 Number of closed-shell orbitals:  15 (  15 )
 Number of active  orbitals:        1 (   1 )
 Number of external orbitals:      84 (  84 )

 Memory could be reduced to 24.91 Mwords without degradation in triples

 Number of N-1 electron functions:              31
 Number of N-2 electron functions:             465
 Number of singly external CSFs:              2635
 Number of doubly external CSFs:           2537250
 Total number of CSFs:                     2539885

 Molecular orbitals read from record     2100.2  Type=RHF/CANONICAL (state 1.1)

 Integral transformation finished. Total CPU:   1.25 sec, npass=  1  Memory used:  12.63 MW

 Starting RMP2 calculation

 ITER.      SQ.NORM     CORR.ENERGY   TOTAL ENERGY   ENERGY CHANGE        DEN1      VAR(S)    VAR(P)  DIIS     TIME
   1      1.24303584    -0.78638218  -268.05176827    -0.78638218    -0.00305000  0.20D-04  0.11D-02  1  1     1.68
   2      1.24567755    -0.78967140  -268.05505749    -0.00328922    -0.00000474  0.54D-06  0.19D-05  2  2     2.05
   3      1.24574311    -0.78971347  -268.05509956    -0.00004207    -0.00000003  0.16D-07  0.68D-08  3  3     2.45
   4      1.24574406    -0.78971347  -268.05509956    -0.00000000    -0.00000000  0.27D-09  0.38D-10  4  4     2.88
   5      1.24574414    -0.78971350  -268.05509959    -0.00000003    -0.00000000  0.25D-11  0.65D-12  5  5     3.34
   6      1.24574416    -0.78971351  -268.05509960    -0.00000001    -0.00000000  0.28D-13  0.86D-14  6  6     3.83
   7      1.24574416    -0.78971351  -268.05509960     0.00000000    -0.00000000  0.47D-15  0.12D-15  6  1     4.32
   8      1.24574416    -0.78971351  -268.05509960     0.00000000    -0.00000000  0.59D-17  0.13D-17  6  2     4.81

 Norm of t1 vector:      0.03892257      S-energy:    -0.00227083      T1 diagnostic:  0.00055007
 Norm of t2 vector:      0.49419550      P-energy:    -0.78744268
                                         Alpha-Beta:  -0.59342171
                                         Alpha-Alpha: -0.10094082
                                         Beta-Beta:   -0.09308014

 Spin contamination <S**2-Sz**2-Sz>     0.00103982
  Reference energy                   -267.265386087749
  RHF-RMP2 correlation energy          -0.789713510231
 !RHF-RMP2 energy                    -268.055099597980

 Starting UCCSD calculation

 ITER.      SQ.NORM     CORR.ENERGY   TOTAL ENERGY   ENERGY CHANGE        DEN1      VAR(S)    VAR(P)  DIIS     TIME
   1      1.26280240    -0.80904661  -268.07443270    -0.80904661    -0.02515877  0.38D-02  0.59D-02  1  1    12.64
   2      1.29157862    -0.83645733  -268.10184342    -0.02741071    -0.00201174  0.22D-03  0.66D-03  2  2    20.35
   3      1.30152157    -0.84095608  -268.10634217    -0.00449875    -0.00032471  0.19D-03  0.56D-04  3  3    28.18
   4      1.30643642    -0.84243369  -268.10781978    -0.00147761    -0.00007208  0.43D-04  0.14D-04  4  4    35.97
   5      1.30916600    -0.84282178  -268.10820786    -0.00038809    -0.00002367  0.19D-04  0.32D-05  5  5    43.69
   6      1.31110456    -0.84302623  -268.10841231    -0.00020445    -0.00000646  0.42D-05  0.12D-05  6  6    51.59
   7      1.31205385    -0.84308498  -268.10847107    -0.00005875    -0.00000208  0.14D-05  0.37D-06  6  2    59.41
   8      1.31249605    -0.84312771  -268.10851380    -0.00004273    -0.00000065  0.45D-06  0.11D-06  6  1    67.20
   9      1.31268159    -0.84313231  -268.10851840    -0.00000460    -0.00000022  0.15D-06  0.35D-07  6  4    72.70
  10      1.31274500    -0.84313525  -268.10852134    -0.00000294    -0.00000005  0.35D-07  0.96D-08  6  3    78.79
  11      1.31277463    -0.84313399  -268.10852008     0.00000126    -0.00000002  0.13D-07  0.28D-08  6  5    86.49
  12      1.31278506    -0.84313373  -268.10851982     0.00000026    -0.00000000  0.26D-08  0.96D-09  6  6    94.19
  13      1.31278392    -0.84313282  -268.10851891     0.00000092    -0.00000000  0.97D-09  0.29D-09  6  2   101.91
  14      1.31277872    -0.84313197  -268.10851806     0.00000084    -0.00000000  0.21D-09  0.68D-10  6  1   109.64
  15      1.31277464    -0.84313139  -268.10851748     0.00000059    -0.00000000  0.78D-10  0.19D-10  6  4   117.33
  16      1.31277145    -0.84313100  -268.10851709     0.00000039    -0.00000000  0.28D-10  0.63D-11  6  3   125.09
  17      1.31276924    -0.84313076  -268.10851685     0.00000024    -0.00000000  0.10D-10  0.24D-11  6  5   132.82
  18      1.31276834    -0.84313070  -268.10851679     0.00000006    -0.00000000  0.41D-11  0.87D-12  6  6   139.90
  19      1.31276773    -0.84313067  -268.10851676     0.00000003    -0.00000000  0.16D-11  0.37D-12  6  2   146.36
  20      1.31276741    -0.84313066  -268.10851675     0.00000001    -0.00000000  0.60D-12  0.13D-12  6  1   153.45
  21      1.31276724    -0.84313065  -268.10851674     0.00000001    -0.00000000  0.28D-12  0.58D-13  6  4   161.19
  22      1.31276712    -0.84313064  -268.10851673     0.00000001    -0.00000000  0.74D-13  0.21D-13  6  3   168.92
  23      1.31276706    -0.84313064  -268.10851672     0.00000000    -0.00000000  0.22D-13  0.63D-14  6  5   176.67
  24      1.31276706    -0.84313064  -268.10851673    -0.00000000    -0.00000000  0.68D-14  0.23D-14  6  6   184.42
  25      1.31276706    -0.84313064  -268.10851673    -0.00000000    -0.00000000  0.21D-14  0.53D-15  6  2   192.03
  26      1.31276707    -0.84313064  -268.10851673    -0.00000000    -0.00000000  0.77D-15  0.15D-15  6  1   197.52
  27      1.31276708    -0.84313064  -268.10851673    -0.00000000    -0.00000000  0.20D-15  0.63D-16  6  3   203.56
  28      1.31276708    -0.84313064  -268.10851673    -0.00000000    -0.00000000  0.30D-16  0.11D-16  6  4   211.27
  29      1.31276708    -0.84313064  -268.10851673    -0.00000000    -0.00000000  0.71D-17  0.30D-17  6  5   219.04
  30      1.31276708    -0.84313064  -268.10851673    -0.00000000    -0.00000000  0.15D-17  0.54D-18  6  6   226.74
  31      1.31276709    -0.84313064  -268.10851673    -0.00000000    -0.00000000  0.36D-18  0.11D-18  6  2   234.43

 Norm of t1 vector:      0.13871613      S-energy:    -0.00282026      T1 diagnostic:  0.01616977
                                                                       D1 diagnostic:  0.06282684
 Norm of t2 vector:      0.54177940      P-energy:    -0.84031038
                                         Alpha-Beta:  -0.66486772
                                         Alpha-Alpha: -0.09147250
                                         Beta-Beta:   -0.08397016

 Spin contamination <S**2-Sz**2-Sz>     0.00217131

 Memory could be reduced to 28.85 Mwords without degradation in triples
 

 RESULTS
 =======

  Reference energy                   -267.265386087749
  UCCSD singles energy                 -0.002820260714
  UCCSD pair energy                    -0.840310380050
  UCCSD correlation energy             -0.843130640763
  Triples (T) contribution             -0.024979245387
  Total correlation energy             -0.868109886151
 
  RHF-UCCSD energy                   -268.108516728513
  RHF-UCCSD[T] energy                -268.134832241202
  RHF-UCCSD-T energy                 -268.133074403988
 !RHF-UCCSD(T) energy                -268.133495973900

 Program statistics:

 Available memory in ccsd:               999997692
 Min. memory needed in ccsd:               7337057
 Max. memory used in ccsd:                10523002
 Max. memory used in cckext:              10867977 (31 integral passes)
 Max. memory used in cckint:              12633073 ( 1 integral passes)



 **********************************************************************************************************************************
 DATASETS  * FILE   NREC   LENGTH (MB)   RECORD NAMES
              1      18        3.17       500      610      700      900      950      970     1000      129      960     1100   
                                          VAR    BASINP    GEOM    SYMINP    ZMAT    AOBASIS   BASIS     P2S    ABASIS      S 
                                         1400     1410     1200     1210     1080     1600     1650     1700   
                                           T        V       H0       H01     AOSYM     SMH    MOLCAS    OPER   

              2       3        0.77       700     1000     2100   
                                         GEOM     BASIS     RHF  

 PROGRAMS   *        TOTAL  UCCSD(T)       RHF       INT
 CPU TIMES  *       296.73    293.55      1.78      1.35
 REAL TIME  *       314.17 SEC
 DISK USED  *         1.30 GB      
 SF USED    *       553.73 MB      
 GA USED    *         0.00 MB       (max)       0.00 MB       (current)
 **********************************************************************************************************************************

        UCCSD(T)        RHF-SCF 
   -268.13349597   -267.26538609
 **********************************************************************************************************************************
 Variable memory released
