
 Primary working directories    : /tmp/320938.477.gen6.q
 Secondary working directories  : /tmp/320938.477.gen6.q
 Wavefunction directory         : /home/vulcan/mel64643/wfu/
 Main file repository           : /tmp/320938.477.gen6.q/

 ARCHNAME  : Linux/x86_64
 FC        : /opt/intel/compilers_and_libraries_2016.1.150/linux/bin/intel64/ifort
 FCVERSION : 16.0.1
 BLASLIB   : -mkl
 id        : ccgc

 Nodes     nprocs
 n080         3
 Number of processes for MPI-2 version of Molpro:   nprocs(total)=    4   nprocs(compute)=    3   nprocs(helper)=    1
 ga_uses_ma=false, calling ma_init with nominal heap.
 GA-space will be limited to   8.0 MW (determined by -G option)

 Using customized tuning parameters: mindgm=10; mindgv=16; mindgc=4; mindgr=1; noblas=0; mincuda=1000; minvec=7
 default implementation of scratch files=sf  

 ***,Frequencies for min3
 memory,1000,m
 gthresh,energy=1.0d-10,orbital=1.0d-10,oneint=1.0d-16,twoint=1.0d-16,optgrad=1.0d-6,compress=1.0d-13
 geomtyp=xyz
 
  geometry = {
  12
  arbitrary comment
     C    1.776964391707    0.711398808326   -0.047331391796
     C    0.492496239012   -0.059989938328   -0.196517226001
     C    0.450181122091   -1.536288650095    0.101408593848
     O   -0.560928297120    0.727726381180    0.254499296629
     O   -1.838000567973    0.091962197045   -0.120508396892
     H    2.585203143998    0.211005946681   -0.611541946009
     H    1.660331551631    1.742452114649   -0.426457437013
     H    2.095029128614    0.773453367223    1.017618619957
     H   -0.505128702745   -1.983133836988   -0.220301489354
     H    1.281627541976   -2.047624361393   -0.417436823856
     H    0.561582477123   -1.719711412131    1.194519153628
     H   -1.988211624407    0.550617559844   -0.966923928049
  }
 
 basis=cc-pvdz
 {rhf;maxit,200}
 {uccsd(t);maxit,200}

 Variables initialized (661), CPU time= 0.00 sec
 Commands  initialized (458), CPU time= 0.01 sec, 486 directives.
 Default parameters read. Elapsed time= 0.05 sec

 Checking input...
 Passed
1


                                         ***  PROGRAM SYSTEM MOLPRO  ***
                         Copyright, University College Cardiff Consultants Limited, 2008

                                    Version 2010.1 linked May 16 2016 07:17:05


 **********************************************************************************************************************************
 LABEL *   Frequencies for min3                                                          
 Linux-4.4.3/n080(x86_64) 64 bit mpp version                                             DATE: 07-Mar-20          TIME: 03:46:19  
 **********************************************************************************************************************************

 SHA1:             9e8077add272b0f3cad6f7df79ec5211205f459d
 **********************************************************************************************************************************

 THRESHOLDS:

 ZERO    =  1.00D-12  ONEINT  =  1.00D-16  TWOINT  =  1.00D-16  PREFAC  =  1.00D-14  LOCALI  =  1.00D-09  EORDER  =  1.00D-04
 ENERGY  =  1.00D-10  ETEST   =  0.00D+00  EDENS   =  0.00D+00  THRDEDEF=  1.00D-06  GRADIENT=  1.00D-02  STEP    =  1.00D-03
 ORBITAL =  1.00D-10  CIVEC   =  1.00D-05  COEFF   =  1.00D-04  PRINTCI =  5.00D-02  PUNCHCI =  9.90D+01  OPTGRAD =  1.00D-06
 OPTENERG=  1.00D-06  OPTSTEP =  3.00D-04  THRGRAD =  1.00D-10  COMPRESS=  1.00D-13  VARMIN  =  1.00D-07  VARMAX  =  1.00D-03
 THRDOUB =  0.00D+00  THRDIV  =  1.00D-05  THRRED  =  1.00D-07  THRPSP  =  1.00D+00  THRDC   =  1.00D-10  THRCS   =  1.00D-10
 THRNRM  =  1.00D-08  THREQ   =  0.00D+00  THRDE   =  1.00D+00  THRREF  =  1.00D-05  SPARFAC =  1.00D+00  THRDLP  =  1.00D-07
 THRDIA  =  1.00D-10  THRDLS  =  1.00D-07  THRGPS  =  0.00D+00  THRKEX  =  0.00D+00  THRDIS  =  2.00D-01  THRVAR  =  1.00D-10
 THRLOC  =  1.00D-06  THRGAP  =  1.00D-06  THRLOCT = -1.00D+00  THRGAPT = -1.00D+00  THRORB  =  1.00D-06  THRMLTP =  0.00D+00
 THRCPQCI=  1.00D-10  KEXTA   =  0.00D+00  THRCOARS=  0.00D+00  SYMTOL  =  1.00D-06  GRADTOL =  1.00D-06  THROVL  =  1.00D-08
 THRORTH =  1.00D-08  GRID    =  1.00D-06  GRIDMAX =  1.00D-03  DTMAX   =  0.00D+00

 SETTING GEOMTYP        =    XYZ

 Variable memory set to 1000000000 words,  buffer space   230000 words

 SETTING BASIS          =    CC-PVDZ


 Recomputing integrals since basis changed


 Using spherical harmonics

 Library entry C      S cc-pVDZ              selected for orbital group  1
 Library entry C      P cc-pVDZ              selected for orbital group  1
 Library entry C      D cc-pVDZ              selected for orbital group  1
 Library entry O      S cc-pVDZ              selected for orbital group  2
 Library entry O      P cc-pVDZ              selected for orbital group  2
 Library entry O      D cc-pVDZ              selected for orbital group  2
 Library entry H      S cc-pVDZ              selected for orbital group  3
 Library entry H      P cc-pVDZ              selected for orbital group  3

1PROGRAM * SEWARD (Integral evaluation for generally contracted gaussian basis sets)     Author: Roland Lindh, 1990

 Geometry written to block  1 of record 700


 Point group  C1  



 ATOMIC COORDINATES

 NR  ATOM    CHARGE       X              Y              Z

   1  C       6.00    3.357976046    1.344348918   -0.089443368
   2  C       6.00    0.930683012   -0.113364554   -0.371363737
   3  C       6.00    0.850719030   -2.903164807    0.191634470
   4  O       8.00   -1.060000861    1.375203559    0.480933971
   5  O       8.00   -3.473317703    0.173783367   -0.227727867
   6  H       1.00    4.885325936    0.398743451   -1.155646796
   7  H       1.00    3.137571920    3.292757294   -0.805887763
   8  H       1.00    3.959031290    1.461615039    1.923020498
   9  H       1.00   -0.954554909   -3.747579834   -0.416309481
  10  H       1.00    2.421925057   -3.869449263   -0.788841274
  11  H       1.00    1.061237082   -3.249783594    2.257314059
  12  H       1.00   -3.757175461    1.040516391   -1.827221414

 Bond lengths in Bohr (Angstrom)

 1-2  2.845375042  1-6  2.088960779  1-7  2.087622032  1-8  2.103575423  2-3  2.847164673
     ( 1.505707623)     ( 1.105430435)     ( 1.104722000)     ( 1.113164171)     ( 1.506654655)

  2- 4  2.627749740   3- 9  2.083661820   3-10  2.088953497   3-11  2.105111541   4- 5  2.787420000
       ( 1.390545273)       ( 1.102626347)       ( 1.105426581)       ( 1.113977050)       ( 1.475039136)

  5-12  1.841244408
       ( 0.974344577)

 Bond angles

  1-2-3  120.42130611   1-2-4  108.89901359   2-1-6  109.95275662   2-1-7  110.73703235

  2- 1- 8  111.53656300   2- 3- 9  111.32940690   2- 3-10  109.83500825   2- 3-11  110.64432246

  2- 4- 5  109.22430230   3- 2- 4  118.01185859   4- 5-12   98.71026644   6- 1- 7  108.93601687

  6- 1- 8  107.73494945   7- 1- 8  107.84603903   9- 3-10  109.10230524   9- 3-11  107.83136921

 10- 3-11  108.01031714

 NUCLEAR CHARGE:                   41
 NUMBER OF PRIMITIVE AOS:         184
 NUMBER OF SYMMETRY AOS:          179
 NUMBER OF CONTRACTIONS:          105   ( 105A   )
 NUMBER OF CORE ORBITALS:           5   (   5A   )
 NUMBER OF VALENCE ORBITALS:       27   (  27A   )


 NUCLEAR REPULSION ENERGY  183.20305295


 Eigenvalues of metric

         1 0.345E-02 0.435E-02 0.105E-01 0.141E-01 0.182E-01 0.214E-01 0.331E-01 0.346E-01


 Contracted 2-electron integrals neglected if value below      1.0D-16
 AO integral compression algorithm  1   Integral accuracy      1.0D-16

     127.664 MB (compressed) written to integral file ( 93.2%)

     Node minimum: 40.632 MB, node maximum: 43.516 MB


 NUMBER OF SORTED TWO-ELECTRON INTEGRALS:    5164320.     BUFFER LENGTH:  32768
 NUMBER OF SEGMENTS:   1  SEGMENT LENGTH:    5164320      RECORD LENGTH: 524288

 Memory used in sort:       5.72 MW

 SORT1 READ    17075251. AND WROTE     5135903. INTEGRALS IN     15 RECORDS. CPU TIME:     0.19 SEC, REAL TIME:     0.23 SEC
 SORT2 READ    15396634. AND WROTE    15487395. INTEGRALS IN    498 RECORDS. CPU TIME:     0.06 SEC, REAL TIME:     0.09 SEC

 Node minimum:     5160610.  Node maximum:     5164320. integrals

 OPERATOR DM      FOR CENTER  0  COORDINATES:    0.000000    0.000000    0.000000


 **********************************************************************************************************************************
 DATASETS  * FILE   NREC   LENGTH (MB)   RECORD NAMES
              1      18        3.17       500      610      700      900      950      970     1000      129      960     1100   
                                          VAR    BASINP    GEOM    SYMINP    ZMAT    AOBASIS   BASIS     P2S    ABASIS      S 
                                         1400     1410     1200     1210     1080     1600     1650     1700   
                                           T        V       H0       H01     AOSYM     SMH    MOLCAS    OPER   

 PROGRAMS   *        TOTAL       INT
 CPU TIMES  *         0.80      0.73
 REAL TIME  *         1.20 SEC
 DISK USED  *       305.97 MB      
 GA USED    *         0.00 MB       (max)       0.00 MB       (current)
 **********************************************************************************************************************************

1PROGRAM * RHF-SCF (OPEN SHELL)       Authors: W. Meyer, H.-J. Werner


 NUMBER OF ELECTRONS:      21+   20-    SPACE SYMMETRY=1    SPIN SYMMETRY: Doublet 
 CONVERGENCE THRESHOLDS:    1.00E-10 (Density)    1.00E-11 (Energy)
 MAX. NUMBER OF ITERATIONS:      200
 INTERPOLATION TYPE:            DIIS
 INTERPOLATION STEPS:              2 (START)      1 (STEP)
 LEVEL SHIFTS:                 -0.30 (CLOSED)  0.00 (OPEN) 



 Orbital guess generated from atomic densities. Full valence occupancy:   32

 Molecular orbital dump at record        2100.2

 ITERATION    DDIFF          GRAD             ENERGY        2-EL.EN.            DIPOLE MOMENTS         DIIS
    1      0.000D+00      0.000D+00      -267.17819563    555.784891    0.57253    0.04811   -0.74985    0
    2      0.000D+00      0.617D-02      -267.24888325    555.703674    0.41563   -0.13198   -0.59902    1
    3      0.927D-02      0.214D-02      -267.26106320    555.622558    0.39536   -0.05995   -0.62634    2
    4      0.336D-02      0.912D-03      -267.26466952    555.774566    0.38070   -0.10007   -0.64266    3
    5      0.186D-02      0.363D-03      -267.26523779    555.745919    0.38323   -0.09353   -0.63559    4
    6      0.792D-03      0.110D-03      -267.26531401    555.732204    0.38151   -0.09332   -0.63831    5
    7      0.277D-03      0.511D-04      -267.26533413    555.729175    0.38081   -0.09306   -0.63779    6
    8      0.144D-03      0.273D-04      -267.26534021    555.727240    0.38109   -0.09317   -0.63800    7
    9      0.925D-04      0.115D-04      -267.26534113    555.727547    0.38128   -0.09313   -0.63776    8
   10      0.366D-04      0.502D-05      -267.26534128    555.728163    0.38153   -0.09314   -0.63783    9
   11      0.147D-04      0.197D-05      -267.26534131    555.728005    0.38159   -0.09314   -0.63783    9
   12      0.652D-05      0.672D-06      -267.26534131    555.728139    0.38160   -0.09314   -0.63783    9
   13      0.228D-05      0.227D-06      -267.26534131    555.728054    0.38161   -0.09314   -0.63783    9
   14      0.634D-06      0.760D-07      -267.26534131    555.728063    0.38161   -0.09314   -0.63783    9
   15      0.194D-06      0.302D-07      -267.26534131    555.728059    0.38161   -0.09314   -0.63782    9
   16      0.828D-07      0.146D-07      -267.26534131    555.728061    0.38161   -0.09314   -0.63782    9
   17      0.377D-07      0.756D-08      -267.26534131    555.728061    0.38161   -0.09314   -0.63782    9
   18      0.224D-07      0.344D-08      -267.26534131    555.728061    0.38161   -0.09314   -0.63782    9
   19      0.115D-07      0.134D-08      -267.26534131    555.728061    0.38161   -0.09314   -0.63782    9
   20      0.446D-08      0.570D-09      -267.26534131    555.728061    0.38161   -0.09314   -0.63782    9
   21      0.166D-08      0.288D-09      -267.26534131    555.728061    0.38161   -0.09314   -0.63782    9
   22      0.759D-09      0.163D-09      -267.26534131    555.728061    0.38161   -0.09314   -0.63782    9
   23      0.450D-09      0.802D-10      -267.26534131    555.728061    0.38161   -0.09314   -0.63782    9
   24      0.266D-09      0.319D-10      -267.26534131    555.728061    0.38161   -0.09314   -0.63782    9
   25      0.940D-10      0.130D-10      -267.26534131    555.728061    0.38161   -0.09314   -0.63782    0

 Final alpha occupancy:  21
 Final beta  occupancy:  20

 !RHF STATE 1.1 Energy               -267.265341314457
 Nuclear energy                       183.20305295
 One-electron energy                 -728.33242473
 Two-electron energy                  277.86403046
 Virial quotient                       -1.00156088
 !RHF STATE 1.1 Dipole moment           0.38160933    -0.09314295    -0.63782498
 Dipole moment /Debye                   0.96989065    -0.23673025    -1.62108320

 Orbital energies:

         1.1          2.1          3.1          4.1          5.1          6.1          7.1          8.1          9.1         10.1
    -20.630423   -20.628745   -11.279321   -11.237864   -11.232272    -1.469792    -1.240498    -1.023345    -0.945423    -0.768261

        11.1         12.1         13.1         14.1         15.1         16.1         17.1         18.1         19.1         20.1
     -0.704444    -0.642969    -0.626600    -0.588841    -0.545093    -0.543301    -0.539020    -0.516971    -0.492886    -0.469900

        21.1         22.1         23.1
     -0.352428     0.181284     0.183520


 **********************************************************************************************************************************
 DATASETS  * FILE   NREC   LENGTH (MB)   RECORD NAMES
              1      18        3.17       500      610      700      900      950      970     1000      129      960     1100   
                                          VAR    BASINP    GEOM    SYMINP    ZMAT    AOBASIS   BASIS     P2S    ABASIS      S 
                                         1400     1410     1200     1210     1080     1600     1650     1700   
                                           T        V       H0       H01     AOSYM     SMH    MOLCAS    OPER   

              2       3        0.77       700     1000     2100   
                                         GEOM     BASIS     RHF  

 PROGRAMS   *        TOTAL       RHF       INT
 CPU TIMES  *         1.68      0.88      0.73
 REAL TIME  *         2.21 SEC
 DISK USED  *       322.53 MB      
 SF USED    *         0.04 MB      
 GA USED    *         0.00 MB       (max)       0.00 MB       (current)
 **********************************************************************************************************************************


1PROGRAM * CCSD (Unrestricted open-shell coupled cluster)     Authors: C. Hampel, H.-J. Werner, 1991, M. Deegan, P.J. Knowles, 1992


 Convergence thresholds:  THRVAR = 1.00D-08  THRDEN = 1.00D-10

 CCSD(T)     terms to be evaluated (factor= 1.000)


 Number of core orbitals:           5 (   5 )
 Number of closed-shell orbitals:  15 (  15 )
 Number of active  orbitals:        1 (   1 )
 Number of external orbitals:      84 (  84 )

 Memory could be reduced to 24.91 Mwords without degradation in triples

 Number of N-1 electron functions:              31
 Number of N-2 electron functions:             465
 Number of singly external CSFs:              2635
 Number of doubly external CSFs:           2537250
 Total number of CSFs:                     2539885

 Molecular orbitals read from record     2100.2  Type=RHF/CANONICAL (state 1.1)

 Integral transformation finished. Total CPU:   0.69 sec, npass=  1  Memory used:  12.63 MW

 Starting RMP2 calculation

 ITER.      SQ.NORM     CORR.ENERGY   TOTAL ENERGY   ENERGY CHANGE        DEN1      VAR(S)    VAR(P)  DIIS     TIME
   1      1.24307549    -0.78641954  -268.05176085    -0.78641954    -0.00305086  0.20D-04  0.11D-02  1  1     0.94
   2      1.24571831    -0.78970972  -268.05505103    -0.00329018    -0.00000475  0.54D-06  0.19D-05  2  2     1.18
   3      1.24578390    -0.78975181  -268.05509312    -0.00004209    -0.00000003  0.16D-07  0.68D-08  3  3     1.43
   4      1.24578486    -0.78975181  -268.05509312    -0.00000000    -0.00000000  0.27D-09  0.38D-10  4  4     1.71
   5      1.24578494    -0.78975184  -268.05509316    -0.00000003    -0.00000000  0.25D-11  0.65D-12  5  5     2.01
   6      1.24578495    -0.78975185  -268.05509316    -0.00000001    -0.00000000  0.28D-13  0.87D-14  6  6     2.34
   7      1.24578495    -0.78975185  -268.05509316     0.00000000    -0.00000000  0.47D-15  0.12D-15  6  1     2.66
   8      1.24578495    -0.78975185  -268.05509316     0.00000000    -0.00000000  0.59D-17  0.13D-17  6  2     2.99

 Norm of t1 vector:      0.03892960      S-energy:    -0.00227140      T1 diagnostic:  0.00055022
 Norm of t2 vector:      0.49423622      P-energy:    -0.78748045
                                         Alpha-Beta:  -0.59345525
                                         Alpha-Alpha: -0.10094303
                                         Beta-Beta:   -0.09308217

 Spin contamination <S**2-Sz**2-Sz>     0.00103996
  Reference energy                   -267.265341314458
  RHF-RMP2 correlation energy          -0.789751846414
 !RHF-RMP2 energy                    -268.055093160872

 Starting UCCSD calculation

 ITER.      SQ.NORM     CORR.ENERGY   TOTAL ENERGY   ENERGY CHANGE        DEN1      VAR(S)    VAR(P)  DIIS     TIME
   1      1.26284313    -0.80907740  -268.07441872    -0.80907740    -0.02516555  0.38D-02  0.59D-02  1  1     7.56
   2      1.29163084    -0.83649492  -268.10183623    -0.02741751    -0.00201303  0.22D-03  0.66D-03  2  2    12.14
   3      1.30157960    -0.84099602  -268.10633734    -0.00450111    -0.00032488  0.19D-03  0.56D-04  3  3    16.76
   4      1.30649621    -0.84247444  -268.10781575    -0.00147842    -0.00007209  0.43D-04  0.14D-04  4  4    21.40
   5      1.30922508    -0.84286255  -268.10820387    -0.00038811    -0.00002367  0.19D-04  0.32D-05  5  5    26.09
   6      1.31116210    -0.84306691  -268.10840822    -0.00020436    -0.00000645  0.42D-05  0.12D-05  6  6    30.83
   7      1.31211029    -0.84312562  -268.10846694    -0.00005871    -0.00000208  0.14D-05  0.37D-06  6  2    35.61
   8      1.31255159    -0.84316831  -268.10850963    -0.00004269    -0.00000065  0.45D-06  0.11D-06  6  1    40.38
   9      1.31273649    -0.84317289  -268.10851420    -0.00000458    -0.00000022  0.15D-06  0.35D-07  6  4    45.15
  10      1.31279971    -0.84317584  -268.10851715    -0.00000295    -0.00000005  0.35D-07  0.95D-08  6  3    49.93
  11      1.31282923    -0.84317456  -268.10851588     0.00000127    -0.00000002  0.13D-07  0.28D-08  6  5    54.72
  12      1.31283960    -0.84317430  -268.10851561     0.00000026    -0.00000000  0.26D-08  0.96D-09  6  6    59.50
  13      1.31283847    -0.84317338  -268.10851470     0.00000092    -0.00000000  0.97D-09  0.29D-09  6  2    64.28
  14      1.31283327    -0.84317254  -268.10851385     0.00000084    -0.00000000  0.21D-09  0.68D-10  6  1    69.07
  15      1.31282919    -0.84317195  -268.10851327     0.00000059    -0.00000000  0.78D-10  0.19D-10  6  4    73.87
  16      1.31282600    -0.84317157  -268.10851288     0.00000038    -0.00000000  0.28D-10  0.63D-11  6  3    80.52
  17      1.31282380    -0.84317133  -268.10851264     0.00000024    -0.00000000  0.10D-10  0.24D-11  6  5    86.43
  18      1.31282290    -0.84317127  -268.10851258     0.00000006    -0.00000000  0.41D-11  0.87D-12  6  6    91.22
  19      1.31282229    -0.84317124  -268.10851255     0.00000003    -0.00000000  0.16D-11  0.37D-12  6  2    96.02
  20      1.31282197    -0.84317122  -268.10851254     0.00000001    -0.00000000  0.60D-12  0.13D-12  6  1   100.83
  21      1.31282181    -0.84317121  -268.10851253     0.00000001    -0.00000000  0.28D-12  0.58D-13  6  4   105.64
  22      1.31282169    -0.84317120  -268.10851252     0.00000001    -0.00000000  0.74D-13  0.21D-13  6  3   110.45
  23      1.31282163    -0.84317120  -268.10851252     0.00000000    -0.00000000  0.22D-13  0.63D-14  6  5   115.69
  24      1.31282162    -0.84317120  -268.10851252    -0.00000000    -0.00000000  0.68D-14  0.23D-14  6  6   121.59
  25      1.31282163    -0.84317120  -268.10851252    -0.00000000    -0.00000000  0.21D-14  0.53D-15  6  2   126.39
  26      1.31282163    -0.84317120  -268.10851252    -0.00000000    -0.00000000  0.77D-15  0.15D-15  6  1   131.19
  27      1.31282164    -0.84317121  -268.10851252    -0.00000000    -0.00000000  0.20D-15  0.63D-16  6  3   136.00
  28      1.31282165    -0.84317121  -268.10851252    -0.00000000    -0.00000000  0.30D-16  0.11D-16  6  4   141.39
  29      1.31282165    -0.84317121  -268.10851252    -0.00000000    -0.00000000  0.71D-17  0.29D-17  6  5   147.77
  30      1.31282165    -0.84317121  -268.10851252    -0.00000000    -0.00000000  0.15D-17  0.54D-18  6  6   154.19
  31      1.31282165    -0.84317121  -268.10851252    -0.00000000    -0.00000000  0.35D-18  0.10D-18  6  2   160.54

 Norm of t1 vector:      0.13871943      S-energy:    -0.00282088      T1 diagnostic:  0.01617035
                                                                       D1 diagnostic:  0.06283918
 Norm of t2 vector:      0.54182891      P-energy:    -0.84035032
                                         Alpha-Beta:  -0.66491029
                                         Alpha-Alpha: -0.09147113
                                         Beta-Beta:   -0.08396891

 Spin contamination <S**2-Sz**2-Sz>     0.00216825

 Memory could be reduced to 28.85 Mwords without degradation in triples
 

 RESULTS
 =======

  Reference energy                   -267.265341314458
  UCCSD singles energy                 -0.002820883634
  UCCSD pair energy                    -0.840350322481
  UCCSD correlation energy             -0.843171206115
  Triples (T) contribution             -0.024984252246
  Total correlation energy             -0.868155458361
 
  RHF-UCCSD energy                   -268.108512520573
  RHF-UCCSD[T] energy                -268.134834011513
  RHF-UCCSD-T energy                 -268.133074709578
 !RHF-UCCSD(T) energy                -268.133496772818

 Program statistics:

 Available memory in ccsd:               999997692
 Min. memory needed in ccsd:               7337057
 Max. memory used in ccsd:                10523002
 Max. memory used in cckext:              10867977 (31 integral passes)
 Max. memory used in cckint:              12633073 ( 1 integral passes)



 **********************************************************************************************************************************
 DATASETS  * FILE   NREC   LENGTH (MB)   RECORD NAMES
              1      18        3.17       500      610      700      900      950      970     1000      129      960     1100   
                                          VAR    BASINP    GEOM    SYMINP    ZMAT    AOBASIS   BASIS     P2S    ABASIS      S 
                                         1400     1410     1200     1210     1080     1600     1650     1700   
                                           T        V       H0       H01     AOSYM     SMH    MOLCAS    OPER   

              2       3        0.77       700     1000     2100   
                                         GEOM     BASIS     RHF  

 PROGRAMS   *        TOTAL  UCCSD(T)       RHF       INT
 CPU TIMES  *       207.20    205.51      0.88      0.73
 REAL TIME  *       216.56 SEC
 DISK USED  *         1.29 GB      
 SF USED    *       553.73 MB      
 GA USED    *         0.00 MB       (max)       0.00 MB       (current)
 **********************************************************************************************************************************

        UCCSD(T)        RHF-SCF 
   -268.13349677   -267.26534131
 **********************************************************************************************************************************
 Variable memory released
