
 Primary working directories    : /tmp/320938.871.gen4.q
 Secondary working directories  : /tmp/320938.871.gen4.q
 Wavefunction directory         : /home/vulcan/mel64643/wfu/
 Main file repository           : /tmp/320938.871.gen4.q/

 ARCHNAME  : Linux/x86_64
 FC        : /opt/intel/compilers_and_libraries_2016.1.150/linux/bin/intel64/ifort
 FCVERSION : 16.0.1
 BLASLIB   : -mkl
 id        : ccgc

 Nodes     nprocs
 n063         3
 Number of processes for MPI-2 version of Molpro:   nprocs(total)=    4   nprocs(compute)=    3   nprocs(helper)=    1
 ga_uses_ma=false, calling ma_init with nominal heap.
 GA-space will be limited to   8.0 MW (determined by -G option)

 Using customized tuning parameters: mindgm=10; mindgv=16; mindgc=4; mindgr=1; noblas=0; mincuda=1000; minvec=7
 default implementation of scratch files=sf  

 ***,Frequencies for min3
 memory,1000,m
 gthresh,energy=1.0d-10,orbital=1.0d-10,oneint=1.0d-16,twoint=1.0d-16,optgrad=1.0d-6,compress=1.0d-13
 geomtyp=xyz
 
  geometry = {
  12
  arbitrary comment
     C    1.776964391707    0.711398808326   -0.047331391796
     C    0.491811976407   -0.059992870174   -0.196493901896
     C    0.450332819107   -1.536294019674    0.101844115986
     O   -0.560753468077    0.727165671205    0.254453901809
     O   -1.837492627544    0.092270680991   -0.120601070326
     H    2.584445795387    0.211937163461   -0.612026460878
     H    1.659422373341    1.743230827384   -0.426438385533
     H    2.094365700716    0.773888968691    1.017333522356
     H   -0.505605576846   -1.982650796220   -0.221084125636
     H    1.281138904410   -2.046890099607   -0.418408243630
     H    0.561212081212   -1.719493559254    1.193705651286
     H   -1.989040641791    0.551138727192   -0.966877968903
  }
 
 basis=cc-pvdz
 {rhf;maxit,200}
 {uccsd(t);maxit,200}

 Variables initialized (661), CPU time= 0.00 sec
 Commands  initialized (458), CPU time= 0.01 sec, 486 directives.
 Default parameters read. Elapsed time= 0.07 sec

 Checking input...
 Passed
1


                                         ***  PROGRAM SYSTEM MOLPRO  ***
                         Copyright, University College Cardiff Consultants Limited, 2008

                                    Version 2010.1 linked May 16 2016 07:17:05


 **********************************************************************************************************************************
 LABEL *   Frequencies for min3                                                          
 Linux-4.4.3/n063(x86_64) 64 bit mpp version                                             DATE: 07-Mar-20          TIME: 06:06:05  
 **********************************************************************************************************************************

 SHA1:             9e8077add272b0f3cad6f7df79ec5211205f459d
 **********************************************************************************************************************************

 THRESHOLDS:

 ZERO    =  1.00D-12  ONEINT  =  1.00D-16  TWOINT  =  1.00D-16  PREFAC  =  1.00D-14  LOCALI  =  1.00D-09  EORDER  =  1.00D-04
 ENERGY  =  1.00D-10  ETEST   =  0.00D+00  EDENS   =  0.00D+00  THRDEDEF=  1.00D-06  GRADIENT=  1.00D-02  STEP    =  1.00D-03
 ORBITAL =  1.00D-10  CIVEC   =  1.00D-05  COEFF   =  1.00D-04  PRINTCI =  5.00D-02  PUNCHCI =  9.90D+01  OPTGRAD =  1.00D-06
 OPTENERG=  1.00D-06  OPTSTEP =  3.00D-04  THRGRAD =  1.00D-10  COMPRESS=  1.00D-13  VARMIN  =  1.00D-07  VARMAX  =  1.00D-03
 THRDOUB =  0.00D+00  THRDIV  =  1.00D-05  THRRED  =  1.00D-07  THRPSP  =  1.00D+00  THRDC   =  1.00D-10  THRCS   =  1.00D-10
 THRNRM  =  1.00D-08  THREQ   =  0.00D+00  THRDE   =  1.00D+00  THRREF  =  1.00D-05  SPARFAC =  1.00D+00  THRDLP  =  1.00D-07
 THRDIA  =  1.00D-10  THRDLS  =  1.00D-07  THRGPS  =  0.00D+00  THRKEX  =  0.00D+00  THRDIS  =  2.00D-01  THRVAR  =  1.00D-10
 THRLOC  =  1.00D-06  THRGAP  =  1.00D-06  THRLOCT = -1.00D+00  THRGAPT = -1.00D+00  THRORB  =  1.00D-06  THRMLTP =  0.00D+00
 THRCPQCI=  1.00D-10  KEXTA   =  0.00D+00  THRCOARS=  0.00D+00  SYMTOL  =  1.00D-06  GRADTOL =  1.00D-06  THROVL  =  1.00D-08
 THRORTH =  1.00D-08  GRID    =  1.00D-06  GRIDMAX =  1.00D-03  DTMAX   =  0.00D+00

 SETTING GEOMTYP        =    XYZ

 Variable memory set to 1000000000 words,  buffer space   230000 words

 SETTING BASIS          =    CC-PVDZ


 Recomputing integrals since basis changed


 Using spherical harmonics

 Library entry C      S cc-pVDZ              selected for orbital group  1
 Library entry C      P cc-pVDZ              selected for orbital group  1
 Library entry C      D cc-pVDZ              selected for orbital group  1
 Library entry O      S cc-pVDZ              selected for orbital group  2
 Library entry O      P cc-pVDZ              selected for orbital group  2
 Library entry O      D cc-pVDZ              selected for orbital group  2
 Library entry H      S cc-pVDZ              selected for orbital group  3
 Library entry H      P cc-pVDZ              selected for orbital group  3

1PROGRAM * SEWARD (Integral evaluation for generally contracted gaussian basis sets)     Author: Roland Lindh, 1990

 Geometry written to block  1 of record 700


 Point group  C1  



 ATOMIC COORDINATES

 NR  ATOM    CHARGE       X              Y              Z

   1  C       6.00    3.357976046    1.344348918   -0.089443368
   2  C       6.00    0.929389944   -0.113370094   -0.371319661
   3  C       6.00    0.851005696   -2.903174955    0.192457487
   4  O       8.00   -1.059670482    1.374143971    0.480848187
   5  O       8.00   -3.472357835    0.174366317   -0.227902994
   6  H       1.00    4.883894755    0.400503196   -1.156562396
   7  H       1.00    3.135853822    3.294228848   -0.805851761
   8  H       1.00    3.957777593    1.462438207    1.922481742
   9  H       1.00   -0.955456071   -3.746667019   -0.417788449
  10  H       1.00    2.421001666   -3.868061709   -0.790676992
  11  H       1.00    1.060537135   -3.249371912    2.255776762
  12  H       1.00   -3.758742077    1.041501255   -1.827134564

 Bond lengths in Bohr (Angstrom)

 1-2  2.846476668  1-6  2.087586088  1-7  2.089165146  1-8  2.102748112  2-3  2.847279389
     ( 1.506290578)     ( 1.104702980)     ( 1.105538581)     ( 1.112726377)     ( 1.506715360)

  2- 4  2.625880712   3- 9  2.084989948   3-10  2.088647217   3-11  2.102627449   4- 5  2.786190036
       ( 1.389556226)       ( 1.103329161)       ( 1.105264505)       ( 1.112662525)       ( 1.474388267)

  5-12  1.841597282
       ( 0.974531310)

 Bond angles

  1-2-3  120.37492214   1-2-4  108.90727334   2-1-6  109.96709885   2-1-7  110.68934587

  2- 1- 8  111.52325029   2- 3- 9  111.24070684   2- 3-10  109.80053712   2- 3-11  110.66397561

  2- 4- 5  109.23537006   3- 2- 4  118.03013507   4- 5-12   98.78946153   6- 1- 7  108.92955612

  6- 1- 8  107.81744412   7- 1- 8  107.81936395   9- 3-10  109.06294395   9- 3-11  107.87514451

 10- 3-11  108.11557593

 NUCLEAR CHARGE:                   41
 NUMBER OF PRIMITIVE AOS:         184
 NUMBER OF SYMMETRY AOS:          179
 NUMBER OF CONTRACTIONS:          105   ( 105A   )
 NUMBER OF CORE ORBITALS:           5   (   5A   )
 NUMBER OF VALENCE ORBITALS:       27   (  27A   )


 NUCLEAR REPULSION ENERGY  183.23704486


 Eigenvalues of metric

         1 0.345E-02 0.435E-02 0.105E-01 0.141E-01 0.182E-01 0.214E-01 0.331E-01 0.345E-01


 Contracted 2-electron integrals neglected if value below      1.0D-16
 AO integral compression algorithm  1   Integral accuracy      1.0D-16

     127.664 MB (compressed) written to integral file ( 93.2%)

     Node minimum: 40.894 MB, node maximum: 44.564 MB


 NUMBER OF SORTED TWO-ELECTRON INTEGRALS:    5164320.     BUFFER LENGTH:  32768
 NUMBER OF SEGMENTS:   1  SEGMENT LENGTH:    5164320      RECORD LENGTH: 524288

 Memory used in sort:       5.72 MW

 SORT1 READ    17075386. AND WROTE     5135964. INTEGRALS IN     15 RECORDS. CPU TIME:     0.22 SEC, REAL TIME:     0.25 SEC
 SORT2 READ    15396848. AND WROTE    15487395. INTEGRALS IN    468 RECORDS. CPU TIME:     0.07 SEC, REAL TIME:     0.10 SEC

 Node minimum:     5160610.  Node maximum:     5164320. integrals

 OPERATOR DM      FOR CENTER  0  COORDINATES:    0.000000    0.000000    0.000000


 **********************************************************************************************************************************
 DATASETS  * FILE   NREC   LENGTH (MB)   RECORD NAMES
              1      18        3.17       500      610      700      900      950      970     1000      129      960     1100   
                                          VAR    BASINP    GEOM    SYMINP    ZMAT    AOBASIS   BASIS     P2S    ABASIS      S 
                                         1400     1410     1200     1210     1080     1600     1650     1700   
                                           T        V       H0       H01     AOSYM     SMH    MOLCAS    OPER   

 PROGRAMS   *        TOTAL       INT
 CPU TIMES  *         0.94      0.86
 REAL TIME  *         1.41 SEC
 DISK USED  *       305.96 MB      
 GA USED    *         0.00 MB       (max)       0.00 MB       (current)
 **********************************************************************************************************************************

1PROGRAM * RHF-SCF (OPEN SHELL)       Authors: W. Meyer, H.-J. Werner


 NUMBER OF ELECTRONS:      21+   20-    SPACE SYMMETRY=1    SPIN SYMMETRY: Doublet 
 CONVERGENCE THRESHOLDS:    1.00E-10 (Density)    1.00E-11 (Energy)
 MAX. NUMBER OF ITERATIONS:      200
 INTERPOLATION TYPE:            DIIS
 INTERPOLATION STEPS:              2 (START)      1 (STEP)
 LEVEL SHIFTS:                 -0.30 (CLOSED)  0.00 (OPEN) 



 Orbital guess generated from atomic densities. Full valence occupancy:   32

 Molecular orbital dump at record        2100.2

 ITERATION    DDIFF          GRAD             ENERGY        2-EL.EN.            DIPOLE MOMENTS         DIIS
    1      0.000D+00      0.000D+00      -267.17832363    555.849128    0.56700    0.05072   -0.75064    0
    2      0.000D+00      0.617D-02      -267.24899916    555.770525    0.41287   -0.13043   -0.59899    1
    3      0.927D-02      0.214D-02      -267.26116602    555.688599    0.39277   -0.05869   -0.62598    2
    4      0.336D-02      0.912D-03      -267.26476783    555.840797    0.37843   -0.09889   -0.64216    3
    5      0.186D-02      0.363D-03      -267.26533505    555.812130    0.38104   -0.09242   -0.63501    4
    6      0.791D-03      0.110D-03      -267.26541108    555.798360    0.37932   -0.09222   -0.63771    5
    7      0.277D-03      0.509D-04      -267.26543106    555.795363    0.37862   -0.09197   -0.63719    6
    8      0.143D-03      0.272D-04      -267.26543707    555.793408    0.37889   -0.09209   -0.63740    7
    9      0.920D-04      0.115D-04      -267.26543798    555.793723    0.37907   -0.09204   -0.63715    8
   10      0.365D-04      0.499D-05      -267.26543814    555.794333    0.37933   -0.09206   -0.63722    9
   11      0.146D-04      0.196D-05      -267.26543816    555.794176    0.37938   -0.09205   -0.63723    9
   12      0.648D-05      0.669D-06      -267.26543817    555.794310    0.37940   -0.09205   -0.63722    9
   13      0.227D-05      0.226D-06      -267.26543817    555.794226    0.37940   -0.09205   -0.63722    9
   14      0.631D-06      0.757D-07      -267.26543817    555.794234    0.37940   -0.09205   -0.63722    9
   15      0.193D-06      0.300D-07      -267.26543817    555.794230    0.37941   -0.09205   -0.63722    9
   16      0.825D-07      0.145D-07      -267.26543817    555.794232    0.37941   -0.09205   -0.63722    9
   17      0.375D-07      0.751D-08      -267.26543817    555.794232    0.37941   -0.09205   -0.63722    9
   18      0.223D-07      0.341D-08      -267.26543817    555.794232    0.37941   -0.09205   -0.63722    9
   19      0.114D-07      0.133D-08      -267.26543817    555.794232    0.37941   -0.09205   -0.63722    9
   20      0.443D-08      0.566D-09      -267.26543817    555.794232    0.37941   -0.09205   -0.63722    9
   21      0.165D-08      0.286D-09      -267.26543817    555.794232    0.37941   -0.09205   -0.63722    9
   22      0.752D-09      0.161D-09      -267.26543817    555.794232    0.37941   -0.09205   -0.63722    9
   23      0.445D-09      0.793D-10      -267.26543817    555.794232    0.37941   -0.09205   -0.63722    9
   24      0.262D-09      0.316D-10      -267.26543817    555.794232    0.37941   -0.09205   -0.63722    9
   25      0.929D-10      0.129D-10      -267.26543817    555.794232    0.37941   -0.09205   -0.63722    0

 Final alpha occupancy:  21
 Final beta  occupancy:  20

 !RHF STATE 1.1 Energy               -267.265438166251
 Nuclear energy                       183.23704486
 One-electron energy                 -728.39959910
 Two-electron energy                  277.89711607
 Virial quotient                       -1.00154864
 !RHF STATE 1.1 Dipole moment           0.37940581    -0.09205412    -0.63722010
 Dipole moment /Debye                   0.96429023    -0.23396292    -1.61954586

 Orbital energies:

         1.1          2.1          3.1          4.1          5.1          6.1          7.1          8.1          9.1         10.1
    -20.630427   -20.628747   -11.279193   -11.237783   -11.232108    -1.470216    -1.240642    -1.023229    -0.945365    -0.768458

        11.1         12.1         13.1         14.1         15.1         16.1         17.1         18.1         19.1         20.1
     -0.704578    -0.642889    -0.626848    -0.588829    -0.545320    -0.543211    -0.539372    -0.516748    -0.492904    -0.469644

        21.1         22.1         23.1
     -0.352341     0.181261     0.183605


 **********************************************************************************************************************************
 DATASETS  * FILE   NREC   LENGTH (MB)   RECORD NAMES
              1      18        3.17       500      610      700      900      950      970     1000      129      960     1100   
                                          VAR    BASINP    GEOM    SYMINP    ZMAT    AOBASIS   BASIS     P2S    ABASIS      S 
                                         1400     1410     1200     1210     1080     1600     1650     1700   
                                           T        V       H0       H01     AOSYM     SMH    MOLCAS    OPER   

              2       3        0.77       700     1000     2100   
                                         GEOM     BASIS     RHF  

 PROGRAMS   *        TOTAL       RHF       INT
 CPU TIMES  *         2.04      1.09      0.86
 REAL TIME  *         2.65 SEC
 DISK USED  *       322.53 MB      
 SF USED    *         0.04 MB      
 GA USED    *         0.00 MB       (max)       0.00 MB       (current)
 **********************************************************************************************************************************


1PROGRAM * CCSD (Unrestricted open-shell coupled cluster)     Authors: C. Hampel, H.-J. Werner, 1991, M. Deegan, P.J. Knowles, 1992


 Convergence thresholds:  THRVAR = 1.00D-08  THRDEN = 1.00D-10

 CCSD(T)     terms to be evaluated (factor= 1.000)


 Number of core orbitals:           5 (   5 )
 Number of closed-shell orbitals:  15 (  15 )
 Number of active  orbitals:        1 (   1 )
 Number of external orbitals:      84 (  84 )

 Memory could be reduced to 24.91 Mwords without degradation in triples

 Number of N-1 electron functions:              31
 Number of N-2 electron functions:             465
 Number of singly external CSFs:              2635
 Number of doubly external CSFs:           2537250
 Total number of CSFs:                     2539885

 Molecular orbitals read from record     2100.2  Type=RHF/CANONICAL (state 1.1)

 Integral transformation finished. Total CPU:   0.93 sec, npass=  1  Memory used:  12.63 MW

 Starting RMP2 calculation

 ITER.      SQ.NORM     CORR.ENERGY   TOTAL ENERGY   ENERGY CHANGE        DEN1      VAR(S)    VAR(P)  DIIS     TIME
   1      1.24298799    -0.78633476  -268.05177293    -0.78633476    -0.00304900  0.20D-04  0.11D-02  1  1     1.26
   2      1.24562806    -0.78962287  -268.05506104    -0.00328811    -0.00000474  0.54D-06  0.19D-05  2  2     1.56
   3      1.24569352    -0.78966488  -268.05510305    -0.00004201    -0.00000003  0.16D-07  0.67D-08  3  3     1.90
   4      1.24569447    -0.78966488  -268.05510305    -0.00000000    -0.00000000  0.27D-09  0.38D-10  4  4     2.26
   5      1.24569455    -0.78966492  -268.05510308    -0.00000003    -0.00000000  0.25D-11  0.65D-12  5  5     2.65
   6      1.24569456    -0.78966492  -268.05510309    -0.00000001    -0.00000000  0.28D-13  0.86D-14  6  6     3.07
   7      1.24569456    -0.78966492  -268.05510309     0.00000000    -0.00000000  0.47D-15  0.12D-15  6  1     3.48
   8      1.24569456    -0.78966492  -268.05510309     0.00000000    -0.00000000  0.59D-17  0.13D-17  6  2     3.89

 Norm of t1 vector:      0.03891083      S-energy:    -0.00226996      T1 diagnostic:  0.00054980
 Norm of t2 vector:      0.49414624      P-energy:    -0.78739496
                                         Alpha-Beta:  -0.59338200
                                         Alpha-Alpha: -0.10093732
                                         Beta-Beta:   -0.09307565

 Spin contamination <S**2-Sz**2-Sz>     0.00103936
  Reference energy                   -267.265438166253
  RHF-RMP2 correlation energy          -0.789664922579
 !RHF-RMP2 energy                    -268.055103088832

 Starting UCCSD calculation

 ITER.      SQ.NORM     CORR.ENERGY   TOTAL ENERGY   ENERGY CHANGE        DEN1      VAR(S)    VAR(P)  DIIS     TIME
   1      1.26276494    -0.80901635  -268.07445452    -0.80901635    -0.02514975  0.38D-02  0.59D-02  1  1     9.28
   2      1.29152834    -0.83642036  -268.10185853    -0.02740401    -0.00200965  0.22D-03  0.66D-03  2  2    14.65
   3      1.30146182    -0.84091595  -268.10635412    -0.00449559    -0.00032439  0.19D-03  0.56D-04  3  3    20.04
   4      1.30636997    -0.84239192  -268.10783009    -0.00147597    -0.00007204  0.43D-04  0.14D-04  4  4    25.46
   5      1.30909781    -0.84277981  -268.10821798    -0.00038789    -0.00002365  0.19D-04  0.32D-05  5  5    31.53
   6      1.31103531    -0.84298414  -268.10842230    -0.00020433    -0.00000645  0.42D-05  0.12D-05  6  6    38.66
   7      1.31198358    -0.84304287  -268.10848104    -0.00005874    -0.00000207  0.14D-05  0.37D-06  6  2    45.14
   8      1.31242419    -0.84308549  -268.10852365    -0.00004261    -0.00000065  0.44D-06  0.11D-06  6  1    51.60
   9      1.31260868    -0.84309004  -268.10852821    -0.00000455    -0.00000022  0.15D-06  0.35D-07  6  4    58.07
  10      1.31267146    -0.84309295  -268.10853112    -0.00000291    -0.00000005  0.34D-07  0.95D-08  6  3    64.54
  11      1.31270079    -0.84309169  -268.10852986     0.00000126    -0.00000002  0.13D-07  0.28D-08  6  5    71.03
  12      1.31271112    -0.84309143  -268.10852959     0.00000026    -0.00000000  0.26D-08  0.95D-09  6  6    77.53
  13      1.31270997    -0.84309052  -268.10852868     0.00000091    -0.00000000  0.96D-09  0.28D-09  6  2    83.99
  14      1.31270477    -0.84308967  -268.10852784     0.00000084    -0.00000000  0.21D-09  0.67D-10  6  1    89.58
  15      1.31270071    -0.84308909  -268.10852726     0.00000058    -0.00000000  0.78D-10  0.19D-10  6  4    95.06
  16      1.31269753    -0.84308871  -268.10852687     0.00000038    -0.00000000  0.28D-10  0.62D-11  6  3   100.54
  17      1.31269533    -0.84308847  -268.10852663     0.00000024    -0.00000000  0.10D-10  0.24D-11  6  5   106.03
  18      1.31269443    -0.84308841  -268.10852657     0.00000006    -0.00000000  0.40D-11  0.86D-12  6  6   111.51
  19      1.31269383    -0.84308837  -268.10852654     0.00000003    -0.00000000  0.16D-11  0.37D-12  6  2   116.98
  20      1.31269351    -0.84308836  -268.10852653     0.00000001    -0.00000000  0.59D-12  0.13D-12  6  1   122.46
  21      1.31269335    -0.84308835  -268.10852652     0.00000001    -0.00000000  0.28D-12  0.57D-13  6  4   127.94
  22      1.31269322    -0.84308834  -268.10852651     0.00000001    -0.00000000  0.73D-13  0.21D-13  6  3   133.43
  23      1.31269317    -0.84308834  -268.10852651     0.00000000    -0.00000000  0.21D-13  0.62D-14  6  5   138.91
  24      1.31269316    -0.84308834  -268.10852651    -0.00000000    -0.00000000  0.67D-14  0.22D-14  6  6   144.39
  25      1.31269317    -0.84308834  -268.10852651    -0.00000000    -0.00000000  0.21D-14  0.52D-15  6  2   149.85
  26      1.31269317    -0.84308834  -268.10852651    -0.00000000    -0.00000000  0.76D-15  0.15D-15  6  1   155.31
  27      1.31269318    -0.84308834  -268.10852651    -0.00000000    -0.00000000  0.20D-15  0.62D-16  6  3   160.77
  28      1.31269319    -0.84308834  -268.10852651    -0.00000000    -0.00000000  0.29D-16  0.11D-16  6  4   166.32
  29      1.31269319    -0.84308834  -268.10852651    -0.00000000    -0.00000000  0.70D-17  0.29D-17  6  5   171.81
  30      1.31269319    -0.84308834  -268.10852651    -0.00000000    -0.00000000  0.15D-17  0.53D-18  6  6   177.28
  31      1.31269319    -0.84308834  -268.10852651    -0.00000000    -0.00000000  0.35D-18  0.10D-18  6  2   182.76

 Norm of t1 vector:      0.13865836      S-energy:    -0.00281898      T1 diagnostic:  0.01616323
                                                                       D1 diagnostic:  0.06280774
 Norm of t2 vector:      0.54172599      P-energy:    -0.84026936
                                         Alpha-Beta:  -0.66482569
                                         Alpha-Alpha: -0.09147375
                                         Beta-Beta:   -0.08396992

 Spin contamination <S**2-Sz**2-Sz>     0.00216826

 Memory could be reduced to 28.85 Mwords without degradation in triples
 

 RESULTS
 =======

  Reference energy                   -267.265438166253
  UCCSD singles energy                 -0.002818982883
  UCCSD pair energy                    -0.840269362054
  UCCSD correlation energy             -0.843088344937
  Triples (T) contribution             -0.024968523499
  Total correlation energy             -0.868056868436
 
  RHF-UCCSD energy                   -268.108526511190
  RHF-UCCSD[T] energy                -268.134830201820
  RHF-UCCSD-T energy                 -268.133073656047
 !RHF-UCCSD(T) energy                -268.133495034690

 Program statistics:

 Available memory in ccsd:               999997692
 Min. memory needed in ccsd:               7337057
 Max. memory used in ccsd:                10523002
 Max. memory used in cckext:              10867977 (31 integral passes)
 Max. memory used in cckint:              12633073 ( 1 integral passes)



 **********************************************************************************************************************************
 DATASETS  * FILE   NREC   LENGTH (MB)   RECORD NAMES
              1      18        3.17       500      610      700      900      950      970     1000      129      960     1100   
                                          VAR    BASINP    GEOM    SYMINP    ZMAT    AOBASIS   BASIS     P2S    ABASIS      S 
                                         1400     1410     1200     1210     1080     1600     1650     1700   
                                           T        V       H0       H01     AOSYM     SMH    MOLCAS    OPER   

              2       3        0.77       700     1000     2100   
                                         GEOM     BASIS     RHF  

 PROGRAMS   *        TOTAL  UCCSD(T)       RHF       INT
 CPU TIMES  *       231.04    229.01      1.09      0.86
 REAL TIME  *       244.35 SEC
 DISK USED  *         1.29 GB      
 SF USED    *       553.73 MB      
 GA USED    *         0.00 MB       (max)       0.00 MB       (current)
 **********************************************************************************************************************************

        UCCSD(T)        RHF-SCF 
   -268.13349503   -267.26543817
 **********************************************************************************************************************************
 Variable memory released
