
 Primary working directories    : /tmp/320938.916.gen4.q
 Secondary working directories  : /tmp/320938.916.gen4.q
 Wavefunction directory         : /home/vulcan/mel64643/wfu/
 Main file repository           : /tmp/320938.916.gen4.q/

 ARCHNAME  : Linux/x86_64
 FC        : /opt/intel/compilers_and_libraries_2016.1.150/linux/bin/intel64/ifort
 FCVERSION : 16.0.1
 BLASLIB   : -mkl
 id        : ccgc

 Nodes     nprocs
 n055         3
 Number of processes for MPI-2 version of Molpro:   nprocs(total)=    4   nprocs(compute)=    3   nprocs(helper)=    1
 ga_uses_ma=false, calling ma_init with nominal heap.
 GA-space will be limited to   8.0 MW (determined by -G option)

 Using customized tuning parameters: mindgm=10; mindgv=16; mindgc=4; mindgr=1; noblas=0; mincuda=1000; minvec=7
 default implementation of scratch files=sf  

 ***,Frequencies for min3
 memory,1000,m
 gthresh,energy=1.0d-10,orbital=1.0d-10,oneint=1.0d-16,twoint=1.0d-16,optgrad=1.0d-6,compress=1.0d-13
 geomtyp=xyz
 
  geometry = {
  12
  arbitrary comment
     C    1.777650235407    0.711470272662   -0.047336950898
     C    0.491677678169   -0.059972913015   -0.196495689703
     C    0.450258902954   -1.536276018622    0.101414448691
     O   -0.560932097504    0.727212152720    0.254456641717
     O   -1.837980486284    0.092195289556   -0.120525242354
     H    2.587629590234    0.211675809887   -0.611581202354
     H    1.659665820824    1.743007747565   -0.426559619102
     H    2.094575108738    0.774175413623    1.017564352783
     H   -0.505268357246   -1.982862287589   -0.220012716273
     H    1.281486176088   -2.047120358387   -0.417239561972
     H    0.561482605539   -1.719188262333    1.194731056357
     H   -1.988741707230    0.550629114764   -0.966741796356
  }
 
 basis=cc-pvdz
 {rhf;maxit,200}
 {uccsd(t);maxit,200}

 Variables initialized (661), CPU time= 0.00 sec
 Commands  initialized (458), CPU time= 0.00 sec, 486 directives.
 Default parameters read. Elapsed time= 0.05 sec

 Checking input...
 Passed
1


                                         ***  PROGRAM SYSTEM MOLPRO  ***
                         Copyright, University College Cardiff Consultants Limited, 2008

                                    Version 2010.1 linked May 16 2016 07:17:05


 **********************************************************************************************************************************
 LABEL *   Frequencies for min3                                                          
 Linux-4.4.3/n055(x86_64) 64 bit mpp version                                             DATE: 07-Mar-20          TIME: 06:22:20  
 **********************************************************************************************************************************

 SHA1:             9e8077add272b0f3cad6f7df79ec5211205f459d
 **********************************************************************************************************************************

 THRESHOLDS:

 ZERO    =  1.00D-12  ONEINT  =  1.00D-16  TWOINT  =  1.00D-16  PREFAC  =  1.00D-14  LOCALI  =  1.00D-09  EORDER  =  1.00D-04
 ENERGY  =  1.00D-10  ETEST   =  0.00D+00  EDENS   =  0.00D+00  THRDEDEF=  1.00D-06  GRADIENT=  1.00D-02  STEP    =  1.00D-03
 ORBITAL =  1.00D-10  CIVEC   =  1.00D-05  COEFF   =  1.00D-04  PRINTCI =  5.00D-02  PUNCHCI =  9.90D+01  OPTGRAD =  1.00D-06
 OPTENERG=  1.00D-06  OPTSTEP =  3.00D-04  THRGRAD =  1.00D-10  COMPRESS=  1.00D-13  VARMIN  =  1.00D-07  VARMAX  =  1.00D-03
 THRDOUB =  0.00D+00  THRDIV  =  1.00D-05  THRRED  =  1.00D-07  THRPSP  =  1.00D+00  THRDC   =  1.00D-10  THRCS   =  1.00D-10
 THRNRM  =  1.00D-08  THREQ   =  0.00D+00  THRDE   =  1.00D+00  THRREF  =  1.00D-05  SPARFAC =  1.00D+00  THRDLP  =  1.00D-07
 THRDIA  =  1.00D-10  THRDLS  =  1.00D-07  THRGPS  =  0.00D+00  THRKEX  =  0.00D+00  THRDIS  =  2.00D-01  THRVAR  =  1.00D-10
 THRLOC  =  1.00D-06  THRGAP  =  1.00D-06  THRLOCT = -1.00D+00  THRGAPT = -1.00D+00  THRORB  =  1.00D-06  THRMLTP =  0.00D+00
 THRCPQCI=  1.00D-10  KEXTA   =  0.00D+00  THRCOARS=  0.00D+00  SYMTOL  =  1.00D-06  GRADTOL =  1.00D-06  THROVL  =  1.00D-08
 THRORTH =  1.00D-08  GRID    =  1.00D-06  GRIDMAX =  1.00D-03  DTMAX   =  0.00D+00

 SETTING GEOMTYP        =    XYZ

 Variable memory set to 1000000000 words,  buffer space   230000 words

 SETTING BASIS          =    CC-PVDZ


 Recomputing integrals since basis changed


 Using spherical harmonics

 Library entry C      S cc-pVDZ              selected for orbital group  1
 Library entry C      P cc-pVDZ              selected for orbital group  1
 Library entry C      D cc-pVDZ              selected for orbital group  1
 Library entry O      S cc-pVDZ              selected for orbital group  2
 Library entry O      P cc-pVDZ              selected for orbital group  2
 Library entry O      D cc-pVDZ              selected for orbital group  2
 Library entry H      S cc-pVDZ              selected for orbital group  3
 Library entry H      P cc-pVDZ              selected for orbital group  3

1PROGRAM * SEWARD (Integral evaluation for generally contracted gaussian basis sets)     Author: Roland Lindh, 1990

 Geometry written to block  1 of record 700


 Point group  C1  



 ATOMIC COORDINATES

 NR  ATOM    CHARGE       X              Y              Z

   1  C       6.00    3.359272102    1.344483966   -0.089453873
   2  C       6.00    0.929136157   -0.113332381   -0.371323040
   3  C       6.00    0.850866015   -2.903140937    0.191645534
   4  O       8.00   -1.060008043    1.374231808    0.480853365
   5  O       8.00   -3.473279754    0.174223848   -0.227759700
   6  H       1.00    4.889911255    0.400009309   -1.155720980
   7  H       1.00    3.136313871    3.293807288   -0.806080859
   8  H       1.00    3.958173317    1.462979509    1.922917948
   9  H       1.00   -0.954818818   -3.747066680   -0.415763779
  10  H       1.00    2.421657914   -3.868496835   -0.788468503
  11  H       1.00    1.061048352   -3.248794984    2.257714497
  12  H       1.00   -3.758177173    1.040538227   -1.826877235

 Bond lengths in Bohr (Angstrom)

 1-2  2.847848213  1-6  2.090888360  1-7  2.088809714  1-8  2.102941798  2-3  2.847119880
     ( 1.507016369)     ( 1.106450467)     ( 1.105350495)     ( 1.112828871)     ( 1.506630952)

  2- 4  2.625975340   3- 9  2.083663708   3-10  2.088042798   3-11  2.105301474   4- 5  2.786760114
       ( 1.389606301)       ( 1.102627345)       ( 1.104944660)       ( 1.114077558)       ( 1.474689939)

  5-12  1.840881320
       ( 0.974152439)

 Bond angles

  1-2-3  120.36352194   1-2-4  108.92199516   2-1-6  110.05809763   2-1-7  110.65116632

  2- 1- 8  111.50470427   2- 3- 9  111.28760104   2- 3-10  109.84787255   2- 3-11  110.62077819

  2- 4- 5  109.23946114   3- 2- 4  118.03986083   4- 5-12   98.75789817   6- 1- 7  108.94909911

  6- 1- 8  107.75611465   7- 1- 8  107.82538331   9- 3-10  109.13739890   9- 3-11  107.82414956

 10- 3-11  108.03734991

 NUCLEAR CHARGE:                   41
 NUMBER OF PRIMITIVE AOS:         184
 NUMBER OF SYMMETRY AOS:          179
 NUMBER OF CONTRACTIONS:          105   ( 105A   )
 NUMBER OF CORE ORBITALS:           5   (   5A   )
 NUMBER OF VALENCE ORBITALS:       27   (  27A   )


 NUCLEAR REPULSION ENERGY  183.20460653


 Eigenvalues of metric

         1 0.346E-02 0.435E-02 0.105E-01 0.141E-01 0.182E-01 0.214E-01 0.331E-01 0.346E-01


 Contracted 2-electron integrals neglected if value below      1.0D-16
 AO integral compression algorithm  1   Integral accuracy      1.0D-16

     127.402 MB (compressed) written to integral file ( 93.4%)

     Node minimum: 40.632 MB, node maximum: 43.516 MB


 NUMBER OF SORTED TWO-ELECTRON INTEGRALS:    5164320.     BUFFER LENGTH:  32768
 NUMBER OF SEGMENTS:   1  SEGMENT LENGTH:    5164320      RECORD LENGTH: 524288

 Memory used in sort:       5.72 MW

 SORT1 READ    17075251. AND WROTE     5135798. INTEGRALS IN     15 RECORDS. CPU TIME:     0.21 SEC, REAL TIME:     0.25 SEC
 SORT2 READ    15396307. AND WROTE    15487395. INTEGRALS IN    465 RECORDS. CPU TIME:     0.07 SEC, REAL TIME:     0.11 SEC

 Node minimum:     5160610.  Node maximum:     5164320. integrals

 OPERATOR DM      FOR CENTER  0  COORDINATES:    0.000000    0.000000    0.000000


 **********************************************************************************************************************************
 DATASETS  * FILE   NREC   LENGTH (MB)   RECORD NAMES
              1      18        3.17       500      610      700      900      950      970     1000      129      960     1100   
                                          VAR    BASINP    GEOM    SYMINP    ZMAT    AOBASIS   BASIS     P2S    ABASIS      S 
                                         1400     1410     1200     1210     1080     1600     1650     1700   
                                           T        V       H0       H01     AOSYM     SMH    MOLCAS    OPER   

 PROGRAMS   *        TOTAL       INT
 CPU TIMES  *         0.92      0.89
 REAL TIME  *         1.36 SEC
 DISK USED  *       305.79 MB      
 GA USED    *         0.00 MB       (max)       0.00 MB       (current)
 **********************************************************************************************************************************

1PROGRAM * RHF-SCF (OPEN SHELL)       Authors: W. Meyer, H.-J. Werner


 NUMBER OF ELECTRONS:      21+   20-    SPACE SYMMETRY=1    SPIN SYMMETRY: Doublet 
 CONVERGENCE THRESHOLDS:    1.00E-10 (Density)    1.00E-11 (Energy)
 MAX. NUMBER OF ITERATIONS:      200
 INTERPOLATION TYPE:            DIIS
 INTERPOLATION STEPS:              2 (START)      1 (STEP)
 LEVEL SHIFTS:                 -0.30 (CLOSED)  0.00 (OPEN) 



 Orbital guess generated from atomic densities. Full valence occupancy:   32

 Molecular orbital dump at record        2100.2

 ITERATION    DDIFF          GRAD             ENERGY        2-EL.EN.            DIPOLE MOMENTS         DIIS
    1      0.000D+00      0.000D+00      -267.17822700    555.781154    0.57005    0.04962   -0.74927    0
    2      0.000D+00      0.617D-02      -267.24890581    555.704841    0.41363   -0.13103   -0.59834    1
    3      0.927D-02      0.214D-02      -267.26108847    555.622718    0.39337   -0.05899   -0.62568    2
    4      0.336D-02      0.912D-03      -267.26470078    555.774931    0.37868   -0.09911   -0.64202    3
    5      0.186D-02      0.363D-03      -267.26527083    555.746348    0.38118   -0.09263   -0.63498    4
    6      0.792D-03      0.110D-03      -267.26534751    555.732607    0.37942   -0.09243   -0.63772    5
    7      0.277D-03      0.512D-04      -267.26536775    555.729580    0.37869   -0.09218   -0.63722    6
    8      0.144D-03      0.273D-04      -267.26537384    555.727643    0.37896   -0.09230   -0.63743    7
    9      0.926D-04      0.115D-04      -267.26537476    555.727950    0.37914   -0.09225   -0.63719    8
   10      0.366D-04      0.502D-05      -267.26537491    555.728566    0.37940   -0.09227   -0.63726    9
   11      0.147D-04      0.197D-05      -267.26537494    555.728408    0.37945   -0.09226   -0.63726    9
   12      0.652D-05      0.672D-06      -267.26537494    555.728542    0.37947   -0.09226   -0.63726    9
   13      0.228D-05      0.227D-06      -267.26537494    555.728457    0.37947   -0.09226   -0.63726    9
   14      0.633D-06      0.760D-07      -267.26537494    555.728466    0.37948   -0.09226   -0.63726    9
   15      0.193D-06      0.302D-07      -267.26537494    555.728462    0.37948   -0.09226   -0.63725    9
   16      0.828D-07      0.146D-07      -267.26537494    555.728464    0.37948   -0.09226   -0.63725    9
   17      0.377D-07      0.754D-08      -267.26537494    555.728464    0.37948   -0.09226   -0.63725    9
   18      0.224D-07      0.343D-08      -267.26537494    555.728464    0.37948   -0.09226   -0.63725    9
   19      0.115D-07      0.134D-08      -267.26537494    555.728464    0.37948   -0.09226   -0.63725    9
   20      0.445D-08      0.570D-09      -267.26537494    555.728464    0.37948   -0.09226   -0.63725    9
   21      0.167D-08      0.288D-09      -267.26537494    555.728464    0.37948   -0.09226   -0.63725    9
   22      0.759D-09      0.163D-09      -267.26537494    555.728464    0.37948   -0.09226   -0.63725    9
   23      0.448D-09      0.801D-10      -267.26537494    555.728464    0.37948   -0.09226   -0.63725    9
   24      0.265D-09      0.319D-10      -267.26537494    555.728464    0.37948   -0.09226   -0.63725    9
   25      0.939D-10      0.130D-10      -267.26537494    555.728464    0.37948   -0.09226   -0.63725    0

 Final alpha occupancy:  21
 Final beta  occupancy:  20

 !RHF STATE 1.1 Energy               -267.265374943056
 Nuclear energy                       183.20460653
 One-electron energy                 -728.33421337
 Two-electron energy                  277.86423190
 Virial quotient                       -1.00156438
 !RHF STATE 1.1 Dipole moment           0.37947705    -0.09226393    -0.63725483
 Dipole moment /Debye                   0.96447127    -0.23449617    -1.61963414

 Orbital energies:

         1.1          2.1          3.1          4.1          5.1          6.1          7.1          8.1          9.1         10.1
    -20.630512   -20.628821   -11.279302   -11.238051   -11.232164    -1.470189    -1.240772    -1.023085    -0.945240    -0.768443

        11.1         12.1         13.1         14.1         15.1         16.1         17.1         18.1         19.1         20.1
     -0.704643    -0.642914    -0.626695    -0.588823    -0.545072    -0.543392    -0.539002    -0.516860    -0.493029    -0.469712

        21.1         22.1         23.1
     -0.352302     0.181283     0.183477


 **********************************************************************************************************************************
 DATASETS  * FILE   NREC   LENGTH (MB)   RECORD NAMES
              1      18        3.17       500      610      700      900      950      970     1000      129      960     1100   
                                          VAR    BASINP    GEOM    SYMINP    ZMAT    AOBASIS   BASIS     P2S    ABASIS      S 
                                         1400     1410     1200     1210     1080     1600     1650     1700   
                                           T        V       H0       H01     AOSYM     SMH    MOLCAS    OPER   

              2       3        0.77       700     1000     2100   
                                         GEOM     BASIS     RHF  

 PROGRAMS   *        TOTAL       RHF       INT
 CPU TIMES  *         2.00      1.07      0.89
 REAL TIME  *         2.61 SEC
 DISK USED  *       322.36 MB      
 SF USED    *         0.04 MB      
 GA USED    *         0.00 MB       (max)       0.00 MB       (current)
 **********************************************************************************************************************************


1PROGRAM * CCSD (Unrestricted open-shell coupled cluster)     Authors: C. Hampel, H.-J. Werner, 1991, M. Deegan, P.J. Knowles, 1992


 Convergence thresholds:  THRVAR = 1.00D-08  THRDEN = 1.00D-10

 CCSD(T)     terms to be evaluated (factor= 1.000)


 Number of core orbitals:           5 (   5 )
 Number of closed-shell orbitals:  15 (  15 )
 Number of active  orbitals:        1 (   1 )
 Number of external orbitals:      84 (  84 )

 Memory could be reduced to 24.91 Mwords without degradation in triples

 Number of N-1 electron functions:              31
 Number of N-2 electron functions:             465
 Number of singly external CSFs:              2635
 Number of doubly external CSFs:           2537250
 Total number of CSFs:                     2539885

 Molecular orbitals read from record     2100.2  Type=RHF/CANONICAL (state 1.1)

 Integral transformation finished. Total CPU:   0.93 sec, npass=  1  Memory used:  12.63 MW

 Starting RMP2 calculation

 ITER.      SQ.NORM     CORR.ENERGY   TOTAL ENERGY   ENERGY CHANGE        DEN1      VAR(S)    VAR(P)  DIIS     TIME
   1      1.24304928    -0.78637761  -268.05175255    -0.78637761    -0.00305023  0.20D-04  0.11D-02  1  1     1.26
   2      1.24569124    -0.78966708  -268.05504203    -0.00328947    -0.00000474  0.54D-06  0.19D-05  2  2     1.56
   3      1.24575679    -0.78970915  -268.05508409    -0.00004206    -0.00000003  0.16D-07  0.68D-08  3  3     1.90
   4      1.24575774    -0.78970915  -268.05508409    -0.00000000    -0.00000000  0.27D-09  0.38D-10  4  4     2.26
   5      1.24575783    -0.78970918  -268.05508412    -0.00000003    -0.00000000  0.25D-11  0.65D-12  5  5     2.65
   6      1.24575784    -0.78970919  -268.05508413    -0.00000001    -0.00000000  0.28D-13  0.86D-14  6  6     3.07
   7      1.24575784    -0.78970919  -268.05508413     0.00000000    -0.00000000  0.47D-15  0.12D-15  6  1     3.49
   8      1.24575784    -0.78970919  -268.05508413     0.00000000    -0.00000000  0.60D-17  0.13D-17  6  2     3.91

 Norm of t1 vector:      0.03892972      S-energy:    -0.00227128      T1 diagnostic:  0.00055013
 Norm of t2 vector:      0.49420878      P-energy:    -0.78743791
                                         Alpha-Beta:  -0.59342536
                                         Alpha-Alpha: -0.10093768
                                         Beta-Beta:   -0.09307487

 Spin contamination <S**2-Sz**2-Sz>     0.00104038
  Reference energy                   -267.265374943057
  RHF-RMP2 correlation energy          -0.789709186973
 !RHF-RMP2 energy                    -268.055084130030

 Starting UCCSD calculation

 ITER.      SQ.NORM     CORR.ENERGY   TOTAL ENERGY   ENERGY CHANGE        DEN1      VAR(S)    VAR(P)  DIIS     TIME
   1      1.26283250    -0.80905626  -268.07443120    -0.80905626    -0.02515870  0.38D-02  0.59D-02  1  1     9.32
   2      1.29161431    -0.83646956  -268.10184451    -0.02741330    -0.00201127  0.22D-03  0.66D-03  2  2    14.67
   3      1.30155765    -0.84096865  -268.10634359    -0.00449908    -0.00032466  0.19D-03  0.56D-04  3  3    20.05
   4      1.30647127    -0.84244595  -268.10782089    -0.00147730    -0.00007210  0.43D-04  0.14D-04  4  4    25.46
   5      1.30920156    -0.84283412  -268.10820907    -0.00038817    -0.00002369  0.19D-04  0.32D-05  5  5    31.51
   6      1.31114171    -0.84303867  -268.10841361    -0.00020454    -0.00000647  0.42D-05  0.12D-05  6  6    39.19
   7      1.31209208    -0.84309750  -268.10847244    -0.00005883    -0.00000208  0.14D-05  0.37D-06  6  2    46.86
   8      1.31253446    -0.84314024  -268.10851518    -0.00004273    -0.00000065  0.45D-06  0.11D-06  6  1    54.57
   9      1.31272014    -0.84314483  -268.10851978    -0.00000460    -0.00000022  0.15D-06  0.35D-07  6  4    61.04
  10      1.31278352    -0.84314778  -268.10852272    -0.00000294    -0.00000005  0.35D-07  0.95D-08  6  3    67.51
  11      1.31281309    -0.84314651  -268.10852146     0.00000126    -0.00000002  0.13D-07  0.28D-08  6  5    74.02
  12      1.31282350    -0.84314625  -268.10852120     0.00000026    -0.00000000  0.26D-08  0.96D-09  6  6    80.50
  13      1.31282236    -0.84314534  -268.10852028     0.00000092    -0.00000000  0.96D-09  0.29D-09  6  2    86.99
  14      1.31281715    -0.84314449  -268.10851943     0.00000085    -0.00000000  0.21D-09  0.68D-10  6  1    93.46
  15      1.31281307    -0.84314390  -268.10851885     0.00000059    -0.00000000  0.78D-10  0.19D-10  6  4    99.94
  16      1.31280989    -0.84314352  -268.10851846     0.00000038    -0.00000000  0.28D-10  0.63D-11  6  3   106.41
  17      1.31280768    -0.84314328  -268.10851823     0.00000024    -0.00000000  0.10D-10  0.24D-11  6  5   112.88
  18      1.31280677    -0.84314322  -268.10851817     0.00000006    -0.00000000  0.41D-11  0.87D-12  6  6   119.38
  19      1.31280616    -0.84314319  -268.10851813     0.00000003    -0.00000000  0.16D-11  0.37D-12  6  2   125.86
  20      1.31280584    -0.84314318  -268.10851812     0.00000001    -0.00000000  0.60D-12  0.13D-12  6  1   132.32
  21      1.31280568    -0.84314317  -268.10851811     0.00000001    -0.00000000  0.28D-12  0.58D-13  6  4   138.78
  22      1.31280556    -0.84314316  -268.10851810     0.00000001    -0.00000000  0.74D-13  0.21D-13  6  3   145.26
  23      1.31280550    -0.84314315  -268.10851810     0.00000000    -0.00000000  0.22D-13  0.63D-14  6  5   151.73
  24      1.31280549    -0.84314315  -268.10851810    -0.00000000    -0.00000000  0.68D-14  0.23D-14  6  6   158.23
  25      1.31280550    -0.84314316  -268.10851810    -0.00000000    -0.00000000  0.21D-14  0.53D-15  6  2   164.72
  26      1.31280550    -0.84314316  -268.10851810    -0.00000000    -0.00000000  0.77D-15  0.15D-15  6  1   171.18
  27      1.31280551    -0.84314316  -268.10851810    -0.00000000    -0.00000000  0.20D-15  0.63D-16  6  3   177.64
  28      1.31280552    -0.84314316  -268.10851810    -0.00000000    -0.00000000  0.30D-16  0.11D-16  6  4   184.10
  29      1.31280552    -0.84314316  -268.10851810    -0.00000000    -0.00000000  0.71D-17  0.29D-17  6  5   190.46
  30      1.31280552    -0.84314316  -268.10851810    -0.00000000    -0.00000000  0.15D-17  0.54D-18  6  6   197.34
  31      1.31280552    -0.84314316  -268.10851810    -0.00000000    -0.00000000  0.36D-18  0.11D-18  6  2   205.12

 Norm of t1 vector:      0.13871874      S-energy:    -0.00282105      T1 diagnostic:  0.01616900
                                                                       D1 diagnostic:  0.06280494
 Norm of t2 vector:      0.54181421      P-energy:    -0.84032211
                                         Alpha-Beta:  -0.66488635
                                         Alpha-Alpha: -0.09147041
                                         Beta-Beta:   -0.08396535

 Spin contamination <S**2-Sz**2-Sz>     0.00217305

 Memory could be reduced to 28.85 Mwords without degradation in triples
 

 RESULTS
 =======

  Reference energy                   -267.265374943057
  UCCSD singles energy                 -0.002821047783
  UCCSD pair energy                    -0.840322110396
  UCCSD correlation energy             -0.843143158180
  Triples (T) contribution             -0.024977991373
  Total correlation energy             -0.868121149553
 
  RHF-UCCSD energy                   -268.108518101236
  RHF-UCCSD[T] energy                -268.134831963852
  RHF-UCCSD-T energy                 -268.133074571891
 !RHF-UCCSD(T) energy                -268.133496092610

 Program statistics:

 Available memory in ccsd:               999997692
 Min. memory needed in ccsd:               7337057
 Max. memory used in ccsd:                10523002
 Max. memory used in cckext:              10867977 (31 integral passes)
 Max. memory used in cckint:              12633073 ( 1 integral passes)



 **********************************************************************************************************************************
 DATASETS  * FILE   NREC   LENGTH (MB)   RECORD NAMES
              1      18        3.17       500      610      700      900      950      970     1000      129      960     1100   
                                          VAR    BASINP    GEOM    SYMINP    ZMAT    AOBASIS   BASIS     P2S    ABASIS      S 
                                         1400     1410     1200     1210     1080     1600     1650     1700   
                                           T        V       H0       H01     AOSYM     SMH    MOLCAS    OPER   

              2       3        0.77       700     1000     2100   
                                         GEOM     BASIS     RHF  

 PROGRAMS   *        TOTAL  UCCSD(T)       RHF       INT
 CPU TIMES  *       262.98    260.99      1.07      0.89
 REAL TIME  *       274.03 SEC
 DISK USED  *         1.29 GB      
 SF USED    *       553.73 MB      
 GA USED    *         0.00 MB       (max)       0.00 MB       (current)
 **********************************************************************************************************************************

        UCCSD(T)        RHF-SCF 
   -268.13349609   -267.26537494
 **********************************************************************************************************************************
 Variable memory released
