
 Primary working directories    : /tmp/320938.588.gen6.q
 Secondary working directories  : /tmp/320938.588.gen6.q
 Wavefunction directory         : /home/vulcan/mel64643/wfu/
 Main file repository           : /tmp/320938.588.gen6.q/

 ARCHNAME  : Linux/x86_64
 FC        : /opt/intel/compilers_and_libraries_2016.1.150/linux/bin/intel64/ifort
 FCVERSION : 16.0.1
 BLASLIB   : -mkl
 id        : ccgc

 Nodes     nprocs
 n080         3
 Number of processes for MPI-2 version of Molpro:   nprocs(total)=    4   nprocs(compute)=    3   nprocs(helper)=    1
 ga_uses_ma=false, calling ma_init with nominal heap.
 GA-space will be limited to   8.0 MW (determined by -G option)

 Using customized tuning parameters: mindgm=10; mindgv=16; mindgc=4; mindgr=1; noblas=0; mincuda=1000; minvec=7
 default implementation of scratch files=sf  

 ***,Frequencies for min3
 memory,1000,m
 gthresh,energy=1.0d-10,orbital=1.0d-10,oneint=1.0d-16,twoint=1.0d-16,optgrad=1.0d-6,compress=1.0d-13
 geomtyp=xyz
 
  geometry = {
  12
  arbitrary comment
     C    1.776964391707    0.711398808326   -0.046821519474
     C    0.491772914207   -0.060028174781   -0.196761682970
     C    0.450345077466   -1.536282654516    0.101388159445
     O   -0.560717392583    0.727274119304    0.254264859039
     O   -1.837864259533    0.092254635938   -0.120377205431
     H    2.585255590082    0.211357702265   -0.612151972707
     H    1.660350277008    1.745081311373   -0.427549931447
     H    2.095633171005    0.773492473561    1.016825963889
     H   -0.505134103974   -1.983148950841   -0.219693177765
     H    1.281583891994   -2.047993557742   -0.417059534488
     H    0.561820443051   -1.719365466987    1.194876716233
     H   -1.987925958895    0.550556259552   -0.967050269610
  }
 
 basis=cc-pvdz
 {rhf;maxit,200}
 {uccsd(t);maxit,200}

 Variables initialized (661), CPU time= 0.01 sec
 Commands  initialized (458), CPU time= 0.00 sec, 486 directives.
 Default parameters read. Elapsed time= 0.06 sec

 Checking input...
 Passed
1


                                         ***  PROGRAM SYSTEM MOLPRO  ***
                         Copyright, University College Cardiff Consultants Limited, 2008

                                    Version 2010.1 linked May 16 2016 07:17:05


 **********************************************************************************************************************************
 LABEL *   Frequencies for min3                                                          
 Linux-4.4.3/n080(x86_64) 64 bit mpp version                                             DATE: 07-Mar-20          TIME: 04:25:19  
 **********************************************************************************************************************************

 SHA1:             9e8077add272b0f3cad6f7df79ec5211205f459d
 **********************************************************************************************************************************

 THRESHOLDS:

 ZERO    =  1.00D-12  ONEINT  =  1.00D-16  TWOINT  =  1.00D-16  PREFAC  =  1.00D-14  LOCALI  =  1.00D-09  EORDER  =  1.00D-04
 ENERGY  =  1.00D-10  ETEST   =  0.00D+00  EDENS   =  0.00D+00  THRDEDEF=  1.00D-06  GRADIENT=  1.00D-02  STEP    =  1.00D-03
 ORBITAL =  1.00D-10  CIVEC   =  1.00D-05  COEFF   =  1.00D-04  PRINTCI =  5.00D-02  PUNCHCI =  9.90D+01  OPTGRAD =  1.00D-06
 OPTENERG=  1.00D-06  OPTSTEP =  3.00D-04  THRGRAD =  1.00D-10  COMPRESS=  1.00D-13  VARMIN  =  1.00D-07  VARMAX  =  1.00D-03
 THRDOUB =  0.00D+00  THRDIV  =  1.00D-05  THRRED  =  1.00D-07  THRPSP  =  1.00D+00  THRDC   =  1.00D-10  THRCS   =  1.00D-10
 THRNRM  =  1.00D-08  THREQ   =  0.00D+00  THRDE   =  1.00D+00  THRREF  =  1.00D-05  SPARFAC =  1.00D+00  THRDLP  =  1.00D-07
 THRDIA  =  1.00D-10  THRDLS  =  1.00D-07  THRGPS  =  0.00D+00  THRKEX  =  0.00D+00  THRDIS  =  2.00D-01  THRVAR  =  1.00D-10
 THRLOC  =  1.00D-06  THRGAP  =  1.00D-06  THRLOCT = -1.00D+00  THRGAPT = -1.00D+00  THRORB  =  1.00D-06  THRMLTP =  0.00D+00
 THRCPQCI=  1.00D-10  KEXTA   =  0.00D+00  THRCOARS=  0.00D+00  SYMTOL  =  1.00D-06  GRADTOL =  1.00D-06  THROVL  =  1.00D-08
 THRORTH =  1.00D-08  GRID    =  1.00D-06  GRIDMAX =  1.00D-03  DTMAX   =  0.00D+00

 SETTING GEOMTYP        =    XYZ

 Variable memory set to 1000000000 words,  buffer space   230000 words

 SETTING BASIS          =    CC-PVDZ


 Recomputing integrals since basis changed


 Using spherical harmonics

 Library entry C      S cc-pVDZ              selected for orbital group  1
 Library entry C      P cc-pVDZ              selected for orbital group  1
 Library entry C      D cc-pVDZ              selected for orbital group  1
 Library entry O      S cc-pVDZ              selected for orbital group  2
 Library entry O      P cc-pVDZ              selected for orbital group  2
 Library entry O      D cc-pVDZ              selected for orbital group  2
 Library entry H      S cc-pVDZ              selected for orbital group  3
 Library entry H      P cc-pVDZ              selected for orbital group  3

1PROGRAM * SEWARD (Integral evaluation for generally contracted gaussian basis sets)     Author: Roland Lindh, 1990

 Geometry written to block  1 of record 700


 Point group  C1  



 ATOMIC COORDINATES

 NR  ATOM    CHARGE       X              Y              Z

   1  C       6.00    3.357976046    1.344348918   -0.088479849
   2  C       6.00    0.929316127   -0.113436811   -0.371825694
   3  C       6.00    0.851028861   -2.903153477    0.191595854
   4  O       8.00   -1.059602309    1.374348908    0.480490948
   5  O       8.00   -3.473060117    0.174335996   -0.227479951
   6  H       1.00    4.885425045    0.399408173   -1.156799579
   7  H       1.00    3.137607306    3.297725756   -0.807952278
   8  H       1.00    3.960172765    1.461688940    1.921522595
   9  H       1.00   -0.954565116   -3.747608395   -0.415159939
  10  H       1.00    2.421842570   -3.870146943   -0.788128301
  11  H       1.00    1.061686772   -3.249129852    2.257989754
  12  H       1.00   -3.756635632    1.040400550   -1.827460165

 Bond lengths in Bohr (Angstrom)

 1-2  2.846719709  1-6  2.089813509  1-7  2.093295017  1-8  2.101551663  2-3  2.847119917
     ( 1.506419190)     ( 1.105881680)     ( 1.107724015)     ( 1.112093244)     ( 1.506630971)

  2- 4  2.625975352   3- 9  2.083608963   3-10  2.088633882   3-11  2.105720817   4- 5  2.786760193
       ( 1.389606307)       ( 1.102598376)       ( 1.105257448)       ( 1.114299465)       ( 1.474689981)

  5-12  1.841309200
       ( 0.974378863)

 Bond angles

  1-2-3  120.36656221   1-2-4  108.88878762   2-1-6  109.94581723   2-1-7  110.72240350

  2- 1- 8  111.60821844   2- 3- 9  111.30389795   2- 3-10  109.88532058   2- 3-11  110.63635153

  2- 4- 5  109.23946093   3- 2- 4  118.03985942   4- 5-12   98.71904109   6- 1- 7  108.85560719

  6- 1- 8  107.74262057   7- 1- 8  107.86611635   9- 3-10  109.11668837   9- 3-11  107.81042268

 10- 3-11  107.99936133

 NUCLEAR CHARGE:                   41
 NUMBER OF PRIMITIVE AOS:         184
 NUMBER OF SYMMETRY AOS:          179
 NUMBER OF CONTRACTIONS:          105   ( 105A   )
 NUMBER OF CORE ORBITALS:           5   (   5A   )
 NUMBER OF VALENCE ORBITALS:       27   (  27A   )


 NUCLEAR REPULSION ENERGY  183.21073121


 Eigenvalues of metric

         1 0.345E-02 0.435E-02 0.105E-01 0.141E-01 0.182E-01 0.214E-01 0.332E-01 0.345E-01


 Contracted 2-electron integrals neglected if value below      1.0D-16
 AO integral compression algorithm  1   Integral accuracy      1.0D-16

     127.664 MB (compressed) written to integral file ( 93.2%)

     Node minimum: 40.632 MB, node maximum: 44.302 MB


 NUMBER OF SORTED TWO-ELECTRON INTEGRALS:    5164320.     BUFFER LENGTH:  32768
 NUMBER OF SEGMENTS:   1  SEGMENT LENGTH:    5164320      RECORD LENGTH: 524288

 Memory used in sort:       5.72 MW

 SORT1 READ    17075251. AND WROTE     5135891. INTEGRALS IN     15 RECORDS. CPU TIME:     0.20 SEC, REAL TIME:     0.23 SEC
 SORT2 READ    15396567. AND WROTE    15487395. INTEGRALS IN    465 RECORDS. CPU TIME:     0.06 SEC, REAL TIME:     0.09 SEC

 Node minimum:     5160610.  Node maximum:     5164320. integrals

 OPERATOR DM      FOR CENTER  0  COORDINATES:    0.000000    0.000000    0.000000


 **********************************************************************************************************************************
 DATASETS  * FILE   NREC   LENGTH (MB)   RECORD NAMES
              1      18        3.17       500      610      700      900      950      970     1000      129      960     1100   
                                          VAR    BASINP    GEOM    SYMINP    ZMAT    AOBASIS   BASIS     P2S    ABASIS      S 
                                         1400     1410     1200     1210     1080     1600     1650     1700   
                                           T        V       H0       H01     AOSYM     SMH    MOLCAS    OPER   

 PROGRAMS   *        TOTAL       INT
 CPU TIMES  *         0.83      0.76
 REAL TIME  *         1.24 SEC
 DISK USED  *       306.05 MB      
 GA USED    *         0.00 MB       (max)       0.00 MB       (current)
 **********************************************************************************************************************************

1PROGRAM * RHF-SCF (OPEN SHELL)       Authors: W. Meyer, H.-J. Werner


 NUMBER OF ELECTRONS:      21+   20-    SPACE SYMMETRY=1    SPIN SYMMETRY: Doublet 
 CONVERGENCE THRESHOLDS:    1.00E-10 (Density)    1.00E-11 (Energy)
 MAX. NUMBER OF ITERATIONS:      200
 INTERPOLATION TYPE:            DIIS
 INTERPOLATION STEPS:              2 (START)      1 (STEP)
 LEVEL SHIFTS:                 -0.30 (CLOSED)  0.00 (OPEN) 



 Orbital guess generated from atomic densities. Full valence occupancy:   32

 Molecular orbital dump at record        2100.2

 ITERATION    DDIFF          GRAD             ENERGY        2-EL.EN.            DIPOLE MOMENTS         DIIS
    1      0.000D+00      0.000D+00      -267.17821935    555.795609    0.57003    0.04984   -0.75060    0
    2      0.000D+00      0.617D-02      -267.24887963    555.717768    0.41412   -0.13165   -0.59872    1
    3      0.927D-02      0.214D-02      -267.26105236    555.635788    0.39386   -0.05988   -0.62583    2
    4      0.336D-02      0.912D-03      -267.26465898    555.787868    0.37927   -0.10022   -0.64202    3
    5      0.186D-02      0.363D-03      -267.26522749    555.759142    0.38179   -0.09380   -0.63488    4
    6      0.792D-03      0.110D-03      -267.26530374    555.745392    0.38005   -0.09363   -0.63759    5
    7      0.277D-03      0.511D-04      -267.26532382    555.742364    0.37933   -0.09338   -0.63706    6
    8      0.143D-03      0.272D-04      -267.26532986    555.740419    0.37960   -0.09350   -0.63727    7
    9      0.922D-04      0.115D-04      -267.26533078    555.740729    0.37979   -0.09346   -0.63702    8
   10      0.366D-04      0.501D-05      -267.26533094    555.741341    0.38005   -0.09347   -0.63709    9
   11      0.147D-04      0.196D-05      -267.26533096    555.741184    0.38010   -0.09346   -0.63710    9
   12      0.650D-05      0.670D-06      -267.26533097    555.741318    0.38012   -0.09346   -0.63709    9
   13      0.227D-05      0.226D-06      -267.26533097    555.741234    0.38012   -0.09346   -0.63709    9
   14      0.631D-06      0.757D-07      -267.26533097    555.741243    0.38012   -0.09347   -0.63709    9
   15      0.193D-06      0.300D-07      -267.26533097    555.741239    0.38012   -0.09347   -0.63709    9
   16      0.823D-07      0.145D-07      -267.26533097    555.741240    0.38012   -0.09347   -0.63709    9
   17      0.374D-07      0.749D-08      -267.26533097    555.741240    0.38012   -0.09347   -0.63709    9
   18      0.222D-07      0.341D-08      -267.26533097    555.741241    0.38012   -0.09347   -0.63709    9
   19      0.114D-07      0.133D-08      -267.26533097    555.741241    0.38012   -0.09347   -0.63709    9
   20      0.443D-08      0.566D-09      -267.26533097    555.741241    0.38012   -0.09347   -0.63709    9
   21      0.165D-08      0.286D-09      -267.26533097    555.741241    0.38012   -0.09347   -0.63709    9
   22      0.753D-09      0.162D-09      -267.26533097    555.741241    0.38012   -0.09347   -0.63709    9
   23      0.446D-09      0.795D-10      -267.26533097    555.741241    0.38012   -0.09347   -0.63709    9
   24      0.263D-09      0.316D-10      -267.26533097    555.741241    0.38012   -0.09347   -0.63709    9
   25      0.930D-10      0.129D-10      -267.26533097    555.741241    0.38012   -0.09347   -0.63709    0

 Final alpha occupancy:  21
 Final beta  occupancy:  20

 !RHF STATE 1.1 Energy               -267.265330966867
 Nuclear energy                       183.21073121
 One-electron energy                 -728.34668246
 Two-electron energy                  277.87062028
 Virial quotient                       -1.00156876
 !RHF STATE 1.1 Dipole moment           0.38012249    -0.09346630    -0.63709027
 Dipole moment /Debye                   0.96611171    -0.23755208    -1.61921590

 Orbital energies:

         1.1          2.1          3.1          4.1          5.1          6.1          7.1          8.1          9.1         10.1
    -20.630485   -20.628811   -11.279332   -11.238098   -11.232268    -1.470175    -1.240728    -1.023147    -0.945182    -0.768442

        11.1         12.1         13.1         14.1         15.1         16.1         17.1         18.1         19.1         20.1
     -0.704595    -0.642874    -0.626738    -0.588887    -0.544986    -0.543215    -0.539047    -0.516675    -0.493020    -0.469805

        21.1         22.1         23.1
     -0.352428     0.181220     0.183539


 **********************************************************************************************************************************
 DATASETS  * FILE   NREC   LENGTH (MB)   RECORD NAMES
              1      18        3.17       500      610      700      900      950      970     1000      129      960     1100   
                                          VAR    BASINP    GEOM    SYMINP    ZMAT    AOBASIS   BASIS     P2S    ABASIS      S 
                                         1400     1410     1200     1210     1080     1600     1650     1700   
                                           T        V       H0       H01     AOSYM     SMH    MOLCAS    OPER   

              2       3        0.77       700     1000     2100   
                                         GEOM     BASIS     RHF  

 PROGRAMS   *        TOTAL       RHF       INT
 CPU TIMES  *         1.71      0.88      0.76
 REAL TIME  *         2.25 SEC
 DISK USED  *       322.62 MB      
 SF USED    *         0.04 MB      
 GA USED    *         0.00 MB       (max)       0.00 MB       (current)
 **********************************************************************************************************************************


1PROGRAM * CCSD (Unrestricted open-shell coupled cluster)     Authors: C. Hampel, H.-J. Werner, 1991, M. Deegan, P.J. Knowles, 1992


 Convergence thresholds:  THRVAR = 1.00D-08  THRDEN = 1.00D-10

 CCSD(T)     terms to be evaluated (factor= 1.000)


 Number of core orbitals:           5 (   5 )
 Number of closed-shell orbitals:  15 (  15 )
 Number of active  orbitals:        1 (   1 )
 Number of external orbitals:      84 (  84 )

 Memory could be reduced to 24.91 Mwords without degradation in triples

 Number of N-1 electron functions:              31
 Number of N-2 electron functions:             465
 Number of singly external CSFs:              2635
 Number of doubly external CSFs:           2537250
 Total number of CSFs:                     2539885

 Molecular orbitals read from record     2100.2  Type=RHF/CANONICAL (state 1.1)

 Integral transformation finished. Total CPU:   0.69 sec, npass=  1  Memory used:  12.63 MW

 Starting RMP2 calculation

 ITER.      SQ.NORM     CORR.ENERGY   TOTAL ENERGY   ENERGY CHANGE        DEN1      VAR(S)    VAR(P)  DIIS     TIME
   1      1.24307859    -0.78641860  -268.05174956    -0.78641860    -0.00305089  0.20D-04  0.11D-02  1  1     0.93
   2      1.24572134    -0.78970881  -268.05503978    -0.00329021    -0.00000474  0.54D-06  0.19D-05  2  2     1.17
   3      1.24578691    -0.78975089  -268.05508185    -0.00004207    -0.00000003  0.16D-07  0.68D-08  3  3     1.42
   4      1.24578786    -0.78975089  -268.05508185    -0.00000000    -0.00000000  0.27D-09  0.38D-10  4  4     1.71
   5      1.24578794    -0.78975092  -268.05508189    -0.00000003    -0.00000000  0.25D-11  0.65D-12  5  5     2.01
   6      1.24578795    -0.78975093  -268.05508189    -0.00000001    -0.00000000  0.28D-13  0.87D-14  6  6     2.34
   7      1.24578795    -0.78975093  -268.05508189     0.00000000    -0.00000000  0.47D-15  0.12D-15  6  1     2.67
   8      1.24578795    -0.78975093  -268.05508189     0.00000000    -0.00000000  0.59D-17  0.13D-17  6  2     2.99

 Norm of t1 vector:      0.03891723      S-energy:    -0.00227024      T1 diagnostic:  0.00055021
 Norm of t2 vector:      0.49424023      P-energy:    -0.78748069
                                         Alpha-Beta:  -0.59345635
                                         Alpha-Alpha: -0.10094161
                                         Beta-Beta:   -0.09308272

 Spin contamination <S**2-Sz**2-Sz>     0.00103949
  Reference energy                   -267.265330966869
  RHF-RMP2 correlation energy          -0.789750925758
 !RHF-RMP2 energy                    -268.055081892627

 Starting UCCSD calculation

 ITER.      SQ.NORM     CORR.ENERGY   TOTAL ENERGY   ENERGY CHANGE        DEN1      VAR(S)    VAR(P)  DIIS     TIME
   1      1.26285856    -0.80908660  -268.07441757    -0.80908660    -0.02516316  0.38D-02  0.59D-02  1  1     7.58
   2      1.29164720    -0.83650383  -268.10183480    -0.02741723    -0.00201222  0.22D-03  0.66D-03  2  2    12.17
   3      1.30159509    -0.84100502  -268.10633599    -0.00450119    -0.00032475  0.19D-03  0.56D-04  3  3    16.79
   4      1.30651004    -0.84248295  -268.10781391    -0.00147793    -0.00007208  0.43D-04  0.14D-04  4  4    21.46
   5      1.30923944    -0.84287109  -268.10820206    -0.00038815    -0.00002366  0.19D-04  0.32D-05  5  5    26.15
   6      1.31117759    -0.84307552  -268.10840648    -0.00020442    -0.00000645  0.42D-05  0.12D-05  6  6    30.90
   7      1.31212595    -0.84313424  -268.10846520    -0.00005872    -0.00000208  0.14D-05  0.37D-06  6  2    35.69
   8      1.31256684    -0.84317689  -268.10850785    -0.00004265    -0.00000065  0.45D-06  0.11D-06  6  1    40.44
   9      1.31275164    -0.84318146  -268.10851243    -0.00000457    -0.00000022  0.15D-06  0.35D-07  6  4    45.22
  10      1.31281468    -0.84318439  -268.10851536    -0.00000293    -0.00000005  0.35D-07  0.95D-08  6  3    50.02
  11      1.31284415    -0.84318313  -268.10851410     0.00000126    -0.00000002  0.13D-07  0.28D-08  6  5    54.81
  12      1.31285451    -0.84318287  -268.10851383     0.00000026    -0.00000000  0.26D-08  0.95D-09  6  6    59.59
  13      1.31285336    -0.84318195  -268.10851292     0.00000092    -0.00000000  0.96D-09  0.28D-09  6  2    64.38
  14      1.31284816    -0.84318111  -268.10851207     0.00000084    -0.00000000  0.21D-09  0.67D-10  6  1    69.54
  15      1.31284409    -0.84318052  -268.10851149     0.00000059    -0.00000000  0.78D-10  0.19D-10  6  4    74.34
  16      1.31284090    -0.84318014  -268.10851110     0.00000038    -0.00000000  0.28D-10  0.63D-11  6  3    79.14
  17      1.31283870    -0.84317990  -268.10851086     0.00000024    -0.00000000  0.10D-10  0.24D-11  6  5    83.94
  18      1.31283780    -0.84317984  -268.10851080     0.00000006    -0.00000000  0.41D-11  0.87D-12  6  6    88.75
  19      1.31283719    -0.84317980  -268.10851077     0.00000003    -0.00000000  0.16D-11  0.37D-12  6  2    93.55
  20      1.31283687    -0.84317979  -268.10851076     0.00000001    -0.00000000  0.60D-12  0.13D-12  6  1    98.35
  21      1.31283671    -0.84317978  -268.10851075     0.00000001    -0.00000000  0.28D-12  0.58D-13  6  4   103.17
  22      1.31283659    -0.84317977  -268.10851074     0.00000001    -0.00000000  0.74D-13  0.21D-13  6  3   108.01
  23      1.31283653    -0.84317977  -268.10851074     0.00000000    -0.00000000  0.21D-13  0.62D-14  6  5   113.24
  24      1.31283653    -0.84317977  -268.10851074    -0.00000000    -0.00000000  0.67D-14  0.22D-14  6  6   118.73
  25      1.31283653    -0.84317977  -268.10851074    -0.00000000    -0.00000000  0.21D-14  0.52D-15  6  2   123.52
  26      1.31283654    -0.84317977  -268.10851074    -0.00000000    -0.00000000  0.77D-15  0.15D-15  6  1   128.32
  27      1.31283655    -0.84317977  -268.10851074    -0.00000000    -0.00000000  0.20D-15  0.62D-16  6  3   133.12
  28      1.31283655    -0.84317977  -268.10851074    -0.00000000    -0.00000000  0.30D-16  0.11D-16  6  4   137.94
  29      1.31283655    -0.84317977  -268.10851074    -0.00000000    -0.00000000  0.70D-17  0.29D-17  6  5   142.75
  30      1.31283656    -0.84317977  -268.10851074    -0.00000000    -0.00000000  0.15D-17  0.54D-18  6  6   147.57
  31      1.31283656    -0.84317977  -268.10851074    -0.00000000    -0.00000000  0.35D-18  0.10D-18  6  2   152.38

 Norm of t1 vector:      0.13870718      S-energy:    -0.00281939      T1 diagnostic:  0.01616955
                                                                       D1 diagnostic:  0.06284666
 Norm of t2 vector:      0.54184580      P-energy:    -0.84036039
                                         Alpha-Beta:  -0.66491922
                                         Alpha-Alpha: -0.09147074
                                         Beta-Beta:   -0.08397043

 Spin contamination <S**2-Sz**2-Sz>     0.00216813

 Memory could be reduced to 28.85 Mwords without degradation in triples
 

 RESULTS
 =======

  Reference energy                   -267.265330966869
  UCCSD singles energy                 -0.002819387262
  UCCSD pair energy                    -0.840360386989
  UCCSD correlation energy             -0.843179774251
  Triples (T) contribution             -0.024981843726
  Total correlation energy             -0.868161617977
 
  RHF-UCCSD energy                   -268.108510741120
  RHF-UCCSD[T] energy                -268.134829081122
  RHF-UCCSD-T energy                 -268.133070834596
 !RHF-UCCSD(T) energy                -268.133492584845

 Program statistics:

 Available memory in ccsd:               999997692
 Min. memory needed in ccsd:               7337057
 Max. memory used in ccsd:                10523002
 Max. memory used in cckext:              10867977 (31 integral passes)
 Max. memory used in cckint:              12633073 ( 1 integral passes)



 **********************************************************************************************************************************
 DATASETS  * FILE   NREC   LENGTH (MB)   RECORD NAMES
              1      18        3.17       500      610      700      900      950      970     1000      129      960     1100   
                                          VAR    BASINP    GEOM    SYMINP    ZMAT    AOBASIS   BASIS     P2S    ABASIS      S 
                                         1400     1410     1200     1210     1080     1600     1650     1700   
                                           T        V       H0       H01     AOSYM     SMH    MOLCAS    OPER   

              2       3        0.77       700     1000     2100   
                                         GEOM     BASIS     RHF  

 PROGRAMS   *        TOTAL  UCCSD(T)       RHF       INT
 CPU TIMES  *       190.69    188.98      0.88      0.76
 REAL TIME  *       200.71 SEC
 DISK USED  *         1.29 GB      
 SF USED    *       553.73 MB      
 GA USED    *         0.00 MB       (max)       0.00 MB       (current)
 **********************************************************************************************************************************

        UCCSD(T)        RHF-SCF 
   -268.13349258   -267.26533097
 **********************************************************************************************************************************
 Variable memory released
