    -----------------------------------------------------------------------
          Psi4: An Open-Source Ab Initio Electronic Structure Package
                              Psi4 1.0rc90 Driver

                          Git: Rev {master} 87fd1c8 dirty

    J. M. Turney, A. C. Simmonett, R. M. Parrish, E. G. Hohenstein,
    F. A. Evangelista, J. T. Fermann, B. J. Mintz, L. A. Burns, J. J. Wilke,
    M. L. Abrams, N. J. Russ, M. L. Leininger, C. L. Janssen, E. T. Seidl,
    W. D. Allen, H. F. Schaefer, R. A. King, E. F. Valeev, C. D. Sherrill,
    and T. D. Crawford, WIREs Comput. Mol. Sci. 2, 556-565 (2012)
    (doi: 10.1002/wcms.93)

                         Additional Contributions by
    A. E. DePrince, U. Bozkaya, A. Yu. Sokolov, D. G. A. Smith, R. Di Remigio,
    R. M. Richard, J. F. Gonthier, H. R. McAlexander, M. Saitow, and
    B. P. Pritchard
    -----------------------------------------------------------------------


    Psi4 started on: Thu Jun 16 13:52:29 2016

    Process ID:   3955
    PSI4DATADIR: /home/avcopan/Documents/code/github/psi4/share
    Memory level set to 256.000 MB

  ==> Input File <==

--------------------------------------------------------------------------
memory 250 mb

molecule {
  O    0.000000000000    0.000000000000   -0.071167275875
  H    0.000000000000   -0.761038596191    0.564738156476
  H   -0.000000000000    0.761038596191    0.564738156476
}

set basis sto-3g
energy('scf')
--------------------------------------------------------------------------

  Memory set to 250.000 MiB by Python script.
    There are an even number of electrons - assuming singlet.
    Specify the multiplicity in the molecule input block.


*** tstart() called on knut
*** at Thu Jun 16 13:52:30 2016


         ---------------------------------------------------------
                                   SCF
            by Justin Turney, Rob Parrish, and Andy Simmonett
                              RHF Reference
                        1 Threads,    250 MiB Core
         ---------------------------------------------------------

  ==> Geometry <==

    Molecular point group: c2v
    Full point group: C2v

    Geometry (in Angstrom), charge = 0, multiplicity = 1:

       Center              X                  Y                   Z               Mass       
    ------------   -----------------  -----------------  -----------------  -----------------
           O          0.000000000000     0.000000000000    -0.071167275875    15.994914619560
           H          0.000000000000    -0.761038596191     0.564738156476     1.007825032070
           H         -0.000000000000     0.761038596191     0.564738156476     1.007825032070

  Running in c2v symmetry.

  Rotational constants: A =     23.28851  B =     14.44003  C =      8.91332 [cm^-1]
  Rotational constants: A = 698171.94361  B = 432901.10467  C = 267214.75337 [MHz]
  Nuclear repulsion =    8.884990261700979

  Charge       = 0
  Multiplicity = 1
  Electrons    = 10
  Nalpha       = 5
  Nbeta        = 5

  ==> Algorithm <==

  SCF Algorithm Type is DF.
  DIIS enabled.
  MOM disabled.
  Fractional occupation disabled.
  Guess Type is CORE.
  Energy threshold   = 1.00e-06
  Density threshold  = 1.00e-06
  Integral threshold = 0.00e+00

  ==> Primary Basis <==

  Basis Set: STO-3G
    Number of shells: 5
    Number of basis function: 7
    Number of Cartesian functions: 7
    Spherical Harmonics?: true
    Max angular momentum: 1

  ==> Pre-Iterations <==

   -------------------------------------------------------
    Irrep   Nso     Nmo     Nalpha   Nbeta   Ndocc  Nsocc
   -------------------------------------------------------
     A1         4       4       0       0       0       0
     A2         0       0       0       0       0       0
     B1         1       1       0       0       0       0
     B2         2       2       0       0       0       0
   -------------------------------------------------------
    Total       7       7       5       5       5       0
   -------------------------------------------------------

  ==> Integral Setup <==

  ==> DFJK: Density-Fitted J/K Matrices <==

    J tasked:                  Yes
    K tasked:                  Yes
    wK tasked:                  No
    OpenMP threads:              1
    Integrals threads:           1
    Memory (MB):               178
    Algorithm:                Core
    Integral Cache:           NONE
    Schwarz Cutoff:          1E-12
    Fitting Condition:       1E-12

   => Auxiliary Basis Set <=

  Basis Set: 
    Number of shells: 30
    Number of basis function: 84
    Number of Cartesian functions: 96
    Spherical Harmonics?: true
    Max angular momentum: 3

  Minimum eigenvalue in the overlap matrix is 3.6470436587E-01.
  Using Symmetric Orthogonalization.
  SCF Guess: Core (One-Electron) Hamiltonian.

  ==> Iterations <==

                           Total Energy        Delta E     RMS |[F,P]|

   @DF-RHF iter   1:   -73.24282779236644   -7.32428e+01   2.16752e-01 
   @DF-RHF iter   2:   -74.93069507670894   -1.68787e+00   4.49689e-02 DIIS
   @DF-RHF iter   3:   -74.96496431175811   -3.42692e-02   7.90390e-03 DIIS
   @DF-RHF iter   4:   -74.96630433263736   -1.34002e-03   1.38982e-03 DIIS
   @DF-RHF iter   5:   -74.96635978441319   -5.54518e-05   3.83588e-04 DIIS
   @DF-RHF iter   6:   -74.96636453694170   -4.75253e-06   3.53533e-05 DIIS
   @DF-RHF iter   7:   -74.96636457382010   -3.68784e-08   2.59481e-08 DIIS

  ==> Post-Iterations <==

    Orbital Energies (a.u.)
    -----------------------

    Doubly Occupied:                                                      

       1A1   -20.252187     2A1    -1.256231     1B2    -0.593051  
       3A1    -0.458944     1B1    -0.392351  

    Virtual:                                                              

       4A1     0.579377     2B2     0.690713  

    Final Occupation by Irrep:
             A1    A2    B1    B2 
    DOCC [     3,    0,    1,    1 ]

  Energy converged.

  @DF-RHF Final Energy:   -74.96636457382010

   => Energetics <=

    Nuclear Repulsion Energy =              8.8849902617009793
    One-Electron Energy =                -121.7971818761735676
    Two-Electron Energy =                  37.9458270406524889
    DFT Exchange-Correlation Energy =       0.0000000000000000
    Empirical Dispersion Energy =           0.0000000000000000
    PCM Polarization Energy =               0.0000000000000000
    EFP Energy =                            0.0000000000000000
    Total Energy =                        -74.9663645738201012


  Saving occupied orbitals to File 180.

*** tstop() called on knut at Thu Jun 16 13:52:30 2016
Module time:
	user time   =       0.13 seconds =       0.00 minutes
	system time =       0.14 seconds =       0.00 minutes
	total time  =          0 seconds =       0.00 minutes
Total time:
	user time   =       0.13 seconds =       0.00 minutes
	system time =       0.14 seconds =       0.00 minutes
	total time  =          0 seconds =       0.00 minutes


Properties will be evaluated at   0.000000,   0.000000,   0.000000 Bohr

Properties computed using the SCF density matrix

  Nuclear Dipole Moment: (a.u.)
     X:     0.0000      Y:     0.0000      Z:     1.0585

  Electronic Dipole Moment: (a.u.)
     X:     0.0000      Y:     0.0000      Z:    -0.3879

  Dipole Moment: (a.u.)
     X:     0.0000      Y:     0.0000      Z:     0.6706     Total:     0.6706

  Dipole Moment: (Debye)
     X:     0.0000      Y:     0.0000      Z:     1.7046     Total:     1.7046


*** Psi4 exiting successfully. Buy a developer a beer!
