
 Primary working directories    : /tmp/320938.806.gen6.q
 Secondary working directories  : /tmp/320938.806.gen6.q
 Wavefunction directory         : /home/vulcan/mel64643/wfu/
 Main file repository           : /tmp/320938.806.gen6.q/

 ARCHNAME  : Linux/x86_64
 FC        : /opt/intel/compilers_and_libraries_2016.1.150/linux/bin/intel64/ifort
 FCVERSION : 16.0.1
 BLASLIB   : -mkl
 id        : ccgc

 Nodes     nprocs
 n090         3
 Number of processes for MPI-2 version of Molpro:   nprocs(total)=    4   nprocs(compute)=    3   nprocs(helper)=    1
 ga_uses_ma=false, calling ma_init with nominal heap.
 GA-space will be limited to   8.0 MW (determined by -G option)

 Using customized tuning parameters: mindgm=10; mindgv=16; mindgc=4; mindgr=1; noblas=0; mincuda=1000; minvec=7
 default implementation of scratch files=sf  

 ***,Frequencies for min3
 memory,1000,m
 gthresh,energy=1.0d-10,orbital=1.0d-10,oneint=1.0d-16,twoint=1.0d-16,optgrad=1.0d-6,compress=1.0d-13
 geomtyp=xyz
 
  geometry = {
  12
  arbitrary comment
     C    1.776964391707    0.711398808326   -0.047331391796
     C    0.491811976407   -0.059992870174   -0.196493901896
     C    0.450332819107   -1.536294019674    0.101417522804
     O   -0.560767745493    0.727234937526    0.254453964104
     O   -1.837840335593    0.092269037726   -0.120531795196
     H    2.585373063107    0.211465914126   -0.611440883996
     H    1.660426393907    1.742887987326   -0.426532369096
     H    2.095123485707    0.774048097326    1.016454513847
     H   -0.504508253996   -1.982778740035   -0.220826966576
     H    1.282467013911   -2.046585366257   -0.414548258767
     H    0.561237904515   -1.720420245993    1.193510953386
     H   -1.988435998703    0.551470358188   -0.966434063067
  }
 
 basis=cc-pvdz
 {rhf;maxit,200}
 {uccsd(t);maxit,200}

 Variables initialized (661), CPU time= 0.00 sec
 Commands  initialized (458), CPU time= 0.01 sec, 486 directives.
 Default parameters read. Elapsed time= 0.06 sec

 Checking input...
 Passed
1


                                         ***  PROGRAM SYSTEM MOLPRO  ***
                         Copyright, University College Cardiff Consultants Limited, 2008

                                    Version 2010.1 linked May 16 2016 07:17:05


 **********************************************************************************************************************************
 LABEL *   Frequencies for min3                                                          
 Linux-4.4.3/n090(x86_64) 64 bit mpp version                                             DATE: 07-Mar-20          TIME: 05:43:20  
 **********************************************************************************************************************************

 SHA1:             9e8077add272b0f3cad6f7df79ec5211205f459d
 **********************************************************************************************************************************

 THRESHOLDS:

 ZERO    =  1.00D-12  ONEINT  =  1.00D-16  TWOINT  =  1.00D-16  PREFAC  =  1.00D-14  LOCALI  =  1.00D-09  EORDER  =  1.00D-04
 ENERGY  =  1.00D-10  ETEST   =  0.00D+00  EDENS   =  0.00D+00  THRDEDEF=  1.00D-06  GRADIENT=  1.00D-02  STEP    =  1.00D-03
 ORBITAL =  1.00D-10  CIVEC   =  1.00D-05  COEFF   =  1.00D-04  PRINTCI =  5.00D-02  PUNCHCI =  9.90D+01  OPTGRAD =  1.00D-06
 OPTENERG=  1.00D-06  OPTSTEP =  3.00D-04  THRGRAD =  1.00D-10  COMPRESS=  1.00D-13  VARMIN  =  1.00D-07  VARMAX  =  1.00D-03
 THRDOUB =  0.00D+00  THRDIV  =  1.00D-05  THRRED  =  1.00D-07  THRPSP  =  1.00D+00  THRDC   =  1.00D-10  THRCS   =  1.00D-10
 THRNRM  =  1.00D-08  THREQ   =  0.00D+00  THRDE   =  1.00D+00  THRREF  =  1.00D-05  SPARFAC =  1.00D+00  THRDLP  =  1.00D-07
 THRDIA  =  1.00D-10  THRDLS  =  1.00D-07  THRGPS  =  0.00D+00  THRKEX  =  0.00D+00  THRDIS  =  2.00D-01  THRVAR  =  1.00D-10
 THRLOC  =  1.00D-06  THRGAP  =  1.00D-06  THRLOCT = -1.00D+00  THRGAPT = -1.00D+00  THRORB  =  1.00D-06  THRMLTP =  0.00D+00
 THRCPQCI=  1.00D-10  KEXTA   =  0.00D+00  THRCOARS=  0.00D+00  SYMTOL  =  1.00D-06  GRADTOL =  1.00D-06  THROVL  =  1.00D-08
 THRORTH =  1.00D-08  GRID    =  1.00D-06  GRIDMAX =  1.00D-03  DTMAX   =  0.00D+00

 SETTING GEOMTYP        =    XYZ

 Variable memory set to 1000000000 words,  buffer space   230000 words

 SETTING BASIS          =    CC-PVDZ


 Recomputing integrals since basis changed


 Using spherical harmonics

 Library entry C      S cc-pVDZ              selected for orbital group  1
 Library entry C      P cc-pVDZ              selected for orbital group  1
 Library entry C      D cc-pVDZ              selected for orbital group  1
 Library entry O      S cc-pVDZ              selected for orbital group  2
 Library entry O      P cc-pVDZ              selected for orbital group  2
 Library entry O      D cc-pVDZ              selected for orbital group  2
 Library entry H      S cc-pVDZ              selected for orbital group  3
 Library entry H      P cc-pVDZ              selected for orbital group  3

1PROGRAM * SEWARD (Integral evaluation for generally contracted gaussian basis sets)     Author: Roland Lindh, 1990

 Geometry written to block  1 of record 700


 Point group  C1  



 ATOMIC COORDINATES

 NR  ATOM    CHARGE       X              Y              Z

   1  C       6.00    3.357976046    1.344348918   -0.089443368
   2  C       6.00    0.929389944   -0.113370094   -0.371319661
   3  C       6.00    0.851005696   -2.903174955    0.191651343
   4  O       8.00   -1.059697462    1.374274865    0.480848305
   5  O       8.00   -3.473014908    0.174363212   -0.227772083
   6  H       1.00    4.885647037    0.399612664   -1.155455816
   7  H       1.00    3.137751146    3.293580974   -0.806029364
   8  H       1.00    3.959209599    1.462738916    1.920820656
   9  H       1.00   -0.953382431   -3.746908798   -0.417302489
  10  H       1.00    2.423511429   -3.867485847   -0.783382677
  11  H       1.00    1.060585934   -3.251123096    2.255408837
  12  H       1.00   -3.757599467    1.042127947   -1.826295703

 Bond lengths in Bohr (Angstrom)

 1-2  2.846476668  1-6  2.088704811  1-7  2.088420481  1-8  2.101584979  2-3  2.847119878
     ( 1.506290578)     ( 1.105294982)     ( 1.105144521)     ( 1.112110874)     ( 1.506630951)

  2- 4  2.625975338   3- 9  2.082913364   3-10  2.086470972   3-11  2.103351321   4- 5  2.786760112
       ( 1.389606300)       ( 1.102230281)       ( 1.104112886)       ( 1.113045581)       ( 1.474689938)

  5-12  1.841000209
       ( 0.974215353)

 Bond angles

  1-2-3  120.37866573   1-2-4  108.90555081   2-1-6  109.98947225   2-1-7  110.73429490

  2- 1- 8  111.57126289   2- 3- 9  111.28211088   2- 3-10  109.85960834   2- 3-11  110.69318326

  2- 4- 5  109.23946113   3- 2- 4  118.03986083   4- 5-12   98.72560014   6- 1- 7  108.91518355

  6- 1- 8  107.72392472   7- 1- 8  107.80643703   9- 3-10  109.21122569   9- 3-11  107.82802587

 10- 3-11  107.87637475

 NUCLEAR CHARGE:                   41
 NUMBER OF PRIMITIVE AOS:         184
 NUMBER OF SYMMETRY AOS:          179
 NUMBER OF CONTRACTIONS:          105   ( 105A   )
 NUMBER OF CORE ORBITALS:           5   (   5A   )
 NUMBER OF VALENCE ORBITALS:       27   (  27A   )


 NUCLEAR REPULSION ENERGY  183.23486958


 Eigenvalues of metric

         1 0.345E-02 0.435E-02 0.105E-01 0.141E-01 0.182E-01 0.213E-01 0.331E-01 0.345E-01


 Contracted 2-electron integrals neglected if value below      1.0D-16
 AO integral compression algorithm  1   Integral accuracy      1.0D-16

     127.664 MB (compressed) written to integral file ( 93.2%)

     Node minimum: 30.933 MB, node maximum: 49.807 MB


 NUMBER OF SORTED TWO-ELECTRON INTEGRALS:    5164320.     BUFFER LENGTH:  32768
 NUMBER OF SEGMENTS:   1  SEGMENT LENGTH:    5164320      RECORD LENGTH: 524288

 Memory used in sort:       5.72 MW

 SORT1 READ    17075251. AND WROTE     5135909. INTEGRALS IN     15 RECORDS. CPU TIME:     0.28 SEC, REAL TIME:     0.32 SEC
 SORT2 READ    15396648. AND WROTE    15487395. INTEGRALS IN    354 RECORDS. CPU TIME:     0.09 SEC, REAL TIME:     0.13 SEC

 Node minimum:     5160610.  Node maximum:     5164320. integrals

 OPERATOR DM      FOR CENTER  0  COORDINATES:    0.000000    0.000000    0.000000


 **********************************************************************************************************************************
 DATASETS  * FILE   NREC   LENGTH (MB)   RECORD NAMES
              1      18        3.17       500      610      700      900      950      970     1000      129      960     1100   
                                          VAR    BASINP    GEOM    SYMINP    ZMAT    AOBASIS   BASIS     P2S    ABASIS      S 
                                         1400     1410     1200     1210     1080     1600     1650     1700   
                                           T        V       H0       H01     AOSYM     SMH    MOLCAS    OPER   

 PROGRAMS   *        TOTAL       INT
 CPU TIMES  *         1.04      0.97
 REAL TIME  *         1.41 SEC
 DISK USED  *       315.75 MB      
 GA USED    *         0.00 MB       (max)       0.00 MB       (current)
 **********************************************************************************************************************************

1PROGRAM * RHF-SCF (OPEN SHELL)       Authors: W. Meyer, H.-J. Werner


 NUMBER OF ELECTRONS:      21+   20-    SPACE SYMMETRY=1    SPIN SYMMETRY: Doublet 
 CONVERGENCE THRESHOLDS:    1.00E-10 (Density)    1.00E-11 (Energy)
 MAX. NUMBER OF ITERATIONS:      200
 INTERPOLATION TYPE:            DIIS
 INTERPOLATION STEPS:              2 (START)      1 (STEP)
 LEVEL SHIFTS:                 -0.30 (CLOSED)  0.00 (OPEN) 



 Orbital guess generated from atomic densities. Full valence occupancy:   32

 Molecular orbital dump at record        2100.2

 ITERATION    DDIFF          GRAD             ENERGY        2-EL.EN.            DIPOLE MOMENTS         DIIS
    1      0.000D+00      0.000D+00      -267.17828345    555.841485    0.57025    0.05048   -0.74892    0
    2      0.000D+00      0.617D-02      -267.24899852    555.762585    0.41444   -0.13077   -0.59788    1
    3      0.928D-02      0.214D-02      -267.26117735    555.680544    0.39423   -0.05887   -0.62510    2
    4      0.336D-02      0.912D-03      -267.26478692    555.832946    0.37965   -0.09911   -0.64144    3
    5      0.186D-02      0.364D-03      -267.26535621    555.804339    0.38219   -0.09265   -0.63437    4
    6      0.792D-03      0.110D-03      -267.26543268    555.790585    0.38045   -0.09246   -0.63710    5
    7      0.277D-03      0.511D-04      -267.26545284    555.787587    0.37974   -0.09221   -0.63659    6
    8      0.144D-03      0.273D-04      -267.26545891    555.785642    0.38002   -0.09233   -0.63680    7
    9      0.925D-04      0.115D-04      -267.26545983    555.785955    0.38020   -0.09229   -0.63656    8
   10      0.366D-04      0.501D-05      -267.26545999    555.786568    0.38046   -0.09230   -0.63662    9
   11      0.147D-04      0.197D-05      -267.26546002    555.786409    0.38051   -0.09229   -0.63663    9
   12      0.651D-05      0.671D-06      -267.26546002    555.786544    0.38053   -0.09229   -0.63662    9
   13      0.227D-05      0.227D-06      -267.26546002    555.786459    0.38053   -0.09230   -0.63662    9
   14      0.633D-06      0.760D-07      -267.26546002    555.786468    0.38053   -0.09230   -0.63662    9
   15      0.193D-06      0.302D-07      -267.26546002    555.786464    0.38053   -0.09230   -0.63662    9
   16      0.829D-07      0.146D-07      -267.26546002    555.786466    0.38053   -0.09230   -0.63662    9
   17      0.378D-07      0.757D-08      -267.26546002    555.786466    0.38053   -0.09230   -0.63662    9
   18      0.225D-07      0.343D-08      -267.26546002    555.786466    0.38053   -0.09230   -0.63662    9
   19      0.115D-07      0.134D-08      -267.26546002    555.786466    0.38053   -0.09230   -0.63662    9
   20      0.444D-08      0.571D-09      -267.26546002    555.786466    0.38053   -0.09230   -0.63662    9
   21      0.167D-08      0.288D-09      -267.26546002    555.786466    0.38053   -0.09230   -0.63662    9
   22      0.760D-09      0.163D-09      -267.26546002    555.786466    0.38053   -0.09230   -0.63662    9
   23      0.448D-09      0.800D-10      -267.26546002    555.786466    0.38053   -0.09230   -0.63662    9
   24      0.265D-09      0.318D-10      -267.26546002    555.786466    0.38053   -0.09230   -0.63662    9
   25      0.937D-10      0.130D-10      -267.26546002    555.786466    0.38053   -0.09230   -0.63662    0

 Final alpha occupancy:  21
 Final beta  occupancy:  20

 !RHF STATE 1.1 Energy               -267.265460019431
 Nuclear energy                       183.23486958
 One-electron energy                 -728.39356255
 Two-electron energy                  277.89323296
 Virial quotient                       -1.00153768
 !RHF STATE 1.1 Dipole moment           0.38053363    -0.09229700    -0.63662197
 Dipole moment /Debye                   0.96715665    -0.23458022    -1.61802567

 Orbital energies:

         1.1          2.1          3.1          4.1          5.1          6.1          7.1          8.1          9.1         10.1
    -20.630456   -20.628786   -11.279244   -11.237752   -11.231926    -1.470163    -1.240740    -1.023298    -0.945501    -0.768542

        11.1         12.1         13.1         14.1         15.1         16.1         17.1         18.1         19.1         20.1
     -0.704663    -0.643030    -0.626785    -0.588874    -0.545222    -0.543557    -0.539108    -0.516990    -0.492986    -0.469762

        21.1         22.1         23.1
     -0.352327     0.181323     0.183574


 **********************************************************************************************************************************
 DATASETS  * FILE   NREC   LENGTH (MB)   RECORD NAMES
              1      18        3.17       500      610      700      900      950      970     1000      129      960     1100   
                                          VAR    BASINP    GEOM    SYMINP    ZMAT    AOBASIS   BASIS     P2S    ABASIS      S 
                                         1400     1410     1200     1210     1080     1600     1650     1700   
                                           T        V       H0       H01     AOSYM     SMH    MOLCAS    OPER   

              2       3        0.77       700     1000     2100   
                                         GEOM     BASIS     RHF  

 PROGRAMS   *        TOTAL       RHF       INT
 CPU TIMES  *         2.34      1.29      0.97
 REAL TIME  *         2.84 SEC
 DISK USED  *       332.32 MB      
 SF USED    *         0.04 MB      
 GA USED    *         0.00 MB       (max)       0.00 MB       (current)
 **********************************************************************************************************************************


1PROGRAM * CCSD (Unrestricted open-shell coupled cluster)     Authors: C. Hampel, H.-J. Werner, 1991, M. Deegan, P.J. Knowles, 1992


 Convergence thresholds:  THRVAR = 1.00D-08  THRDEN = 1.00D-10

 CCSD(T)     terms to be evaluated (factor= 1.000)


 Number of core orbitals:           5 (   5 )
 Number of closed-shell orbitals:  15 (  15 )
 Number of active  orbitals:        1 (   1 )
 Number of external orbitals:      84 (  84 )

 Memory could be reduced to 24.91 Mwords without degradation in triples

 Number of N-1 electron functions:              31
 Number of N-2 electron functions:             465
 Number of singly external CSFs:              2635
 Number of doubly external CSFs:           2537250
 Total number of CSFs:                     2539885

 Molecular orbitals read from record     2100.2  Type=RHF/CANONICAL (state 1.1)

 Integral transformation finished. Total CPU:   0.82 sec, npass=  1  Memory used:  12.63 MW

 Starting RMP2 calculation

 ITER.      SQ.NORM     CORR.ENERGY   TOTAL ENERGY   ENERGY CHANGE        DEN1      VAR(S)    VAR(P)  DIIS     TIME
   1      1.24297068    -0.78632263  -268.05178265    -0.78632263    -0.00304862  0.20D-04  0.11D-02  1  1     1.12
   2      1.24561045    -0.78961032  -268.05507034    -0.00328769    -0.00000474  0.54D-06  0.19D-05  2  2     1.38
   3      1.24567593    -0.78965234  -268.05511236    -0.00004202    -0.00000003  0.16D-07  0.67D-08  3  3     1.67
   4      1.24567688    -0.78965235  -268.05511236    -0.00000000    -0.00000000  0.27D-09  0.38D-10  4  4     1.97
   5      1.24567696    -0.78965238  -268.05511240    -0.00000003    -0.00000000  0.25D-11  0.65D-12  5  5     2.30
   6      1.24567697    -0.78965238  -268.05511240    -0.00000001    -0.00000000  0.28D-13  0.86D-14  6  6     2.64
   7      1.24567697    -0.78965238  -268.05511240     0.00000000    -0.00000000  0.47D-15  0.12D-15  6  1     2.97
   8      1.24567697    -0.78965238  -268.05511240     0.00000000    -0.00000000  0.59D-17  0.13D-17  6  2     3.31

 Norm of t1 vector:      0.03891966      S-energy:    -0.00227076      T1 diagnostic:  0.00054995
 Norm of t2 vector:      0.49412775      P-energy:    -0.78738163
                                         Alpha-Beta:  -0.59336763
                                         Alpha-Alpha: -0.10093728
                                         Beta-Beta:   -0.09307672

 Spin contamination <S**2-Sz**2-Sz>     0.00103979
  Reference energy                   -267.265460019433
  RHF-RMP2 correlation energy          -0.789652384130
 !RHF-RMP2 energy                    -268.055112403562

 Starting UCCSD calculation

 ITER.      SQ.NORM     CORR.ENERGY   TOTAL ENERGY   ENERGY CHANGE        DEN1      VAR(S)    VAR(P)  DIIS     TIME
   1      1.26273708    -0.80899763  -268.07445765    -0.80899763    -0.02514851  0.38D-02  0.59D-02  1  1     8.95
   2      1.29149510    -0.83639824  -268.10185826    -0.02740061    -0.00200991  0.22D-03  0.66D-03  2  2    14.60
   3      1.30142849    -0.84089317  -268.10635319    -0.00449493    -0.00032449  0.19D-03  0.56D-04  3  3    20.28
   4      1.30633898    -0.84236945  -268.10782947    -0.00147628    -0.00007207  0.43D-04  0.14D-04  4  4    25.99
   5      1.30906838    -0.84275749  -268.10821751    -0.00038804    -0.00002367  0.19D-04  0.32D-05  5  5    31.70
   6      1.31100716    -0.84296193  -268.10842195    -0.00020444    -0.00000646  0.42D-05  0.12D-05  6  6    37.41
   7      1.31195662    -0.84302073  -268.10848075    -0.00005880    -0.00000208  0.14D-05  0.37D-06  6  2    43.17
   8      1.31239845    -0.84306343  -268.10852345    -0.00004270    -0.00000065  0.45D-06  0.11D-06  6  1    48.92
   9      1.31258376    -0.84306801  -268.10852803    -0.00000458    -0.00000022  0.15D-06  0.35D-07  6  4    54.68
  10      1.31264691    -0.84307093  -268.10853095    -0.00000292    -0.00000005  0.35D-07  0.95D-08  6  3    59.53
  11      1.31267643    -0.84306968  -268.10852970     0.00000126    -0.00000002  0.13D-07  0.28D-08  6  5    65.47
  12      1.31268683    -0.84306942  -268.10852944     0.00000026    -0.00000000  0.26D-08  0.95D-09  6  6    71.24
  13      1.31268569    -0.84306851  -268.10852853     0.00000091    -0.00000000  0.96D-09  0.28D-09  6  2    77.06
  14      1.31268048    -0.84306766  -268.10852768     0.00000084    -0.00000000  0.21D-09  0.67D-10  6  1    82.85
  15      1.31267640    -0.84306708  -268.10852709     0.00000059    -0.00000000  0.78D-10  0.19D-10  6  4    88.64
  16      1.31267322    -0.84306669  -268.10852671     0.00000038    -0.00000000  0.28D-10  0.63D-11  6  3    94.44
  17      1.31267102    -0.84306645  -268.10852647     0.00000024    -0.00000000  0.10D-10  0.24D-11  6  5   100.21
  18      1.31267011    -0.84306639  -268.10852641     0.00000006    -0.00000000  0.41D-11  0.87D-12  6  6   106.00
  19      1.31266950    -0.84306636  -268.10852638     0.00000003    -0.00000000  0.16D-11  0.37D-12  6  2   111.81
  20      1.31266918    -0.84306635  -268.10852637     0.00000001    -0.00000000  0.60D-12  0.13D-12  6  1   117.64
  21      1.31266902    -0.84306634  -268.10852636     0.00000001    -0.00000000  0.28D-12  0.58D-13  6  4   123.43
  22      1.31266890    -0.84306633  -268.10852635     0.00000001    -0.00000000  0.74D-13  0.21D-13  6  3   129.21
  23      1.31266884    -0.84306632  -268.10852634     0.00000000    -0.00000000  0.21D-13  0.62D-14  6  5   135.32
  24      1.31266883    -0.84306633  -268.10852635    -0.00000000    -0.00000000  0.67D-14  0.22D-14  6  6   141.64
  25      1.31266884    -0.84306633  -268.10852635    -0.00000000    -0.00000000  0.21D-14  0.52D-15  6  2   147.95
  26      1.31266884    -0.84306633  -268.10852635    -0.00000000    -0.00000000  0.77D-15  0.15D-15  6  1   154.31
  27      1.31266885    -0.84306633  -268.10852635    -0.00000000    -0.00000000  0.20D-15  0.62D-16  6  3   160.63
  28      1.31266886    -0.84306633  -268.10852635    -0.00000000    -0.00000000  0.30D-16  0.11D-16  6  4   166.96
  29      1.31266886    -0.84306633  -268.10852635    -0.00000000    -0.00000000  0.71D-17  0.29D-17  6  5   173.28
  30      1.31266886    -0.84306633  -268.10852635    -0.00000000    -0.00000000  0.15D-17  0.54D-18  6  6   179.60
  31      1.31266886    -0.84306633  -268.10852635    -0.00000000    -0.00000000  0.35D-18  0.10D-18  6  2   185.91

 Norm of t1 vector:      0.13869313      S-energy:    -0.00282009      T1 diagnostic:  0.01616689
                                                                       D1 diagnostic:  0.06282147
 Norm of t2 vector:      0.54169464      P-energy:    -0.84024624
                                         Alpha-Beta:  -0.66480030
                                         Alpha-Alpha: -0.09147416
                                         Beta-Beta:   -0.08397178

 Spin contamination <S**2-Sz**2-Sz>     0.00217170

 Memory could be reduced to 28.85 Mwords without degradation in triples
 

 RESULTS
 =======

  Reference energy                   -267.265460019433
  UCCSD singles energy                 -0.002820091007
  UCCSD pair energy                    -0.840246238037
  UCCSD correlation energy             -0.843066329044
  Triples (T) contribution             -0.024968702586
  Total correlation energy             -0.868035031630
 
  RHF-UCCSD energy                   -268.108526348476
  RHF-UCCSD[T] energy                -268.134830402880
  RHF-UCCSD-T energy                 -268.133073786323
 !RHF-UCCSD(T) energy                -268.133495051063

 Program statistics:

 Available memory in ccsd:               999997692
 Min. memory needed in ccsd:               7337057
 Max. memory used in ccsd:                10523002
 Max. memory used in cckext:              10867977 (31 integral passes)
 Max. memory used in cckint:              12633073 ( 1 integral passes)



 **********************************************************************************************************************************
 DATASETS  * FILE   NREC   LENGTH (MB)   RECORD NAMES
              1      18        3.17       500      610      700      900      950      970     1000      129      960     1100   
                                          VAR    BASINP    GEOM    SYMINP    ZMAT    AOBASIS   BASIS     P2S    ABASIS      S 
                                         1400     1410     1200     1210     1080     1600     1650     1700   
                                           T        V       H0       H01     AOSYM     SMH    MOLCAS    OPER   

              2       3        0.77       700     1000     2100   
                                         GEOM     BASIS     RHF  

 PROGRAMS   *        TOTAL  UCCSD(T)       RHF       INT
 CPU TIMES  *       233.45    231.11      1.29      0.97
 REAL TIME  *       242.63 SEC
 DISK USED  *         1.30 GB      
 SF USED    *       553.73 MB      
 GA USED    *         0.00 MB       (max)       0.00 MB       (current)
 **********************************************************************************************************************************

        UCCSD(T)        RHF-SCF 
   -268.13349505   -267.26546002
 **********************************************************************************************************************************
 Variable memory released
