
 Primary working directories    : /tmp/320938.479.gen6.q
 Secondary working directories  : /tmp/320938.479.gen6.q
 Wavefunction directory         : /home/vulcan/mel64643/wfu/
 Main file repository           : /tmp/320938.479.gen6.q/

 ARCHNAME  : Linux/x86_64
 FC        : /opt/intel/compilers_and_libraries_2016.1.150/linux/bin/intel64/ifort
 FCVERSION : 16.0.1
 BLASLIB   : -mkl
 id        : ccgc

 Nodes     nprocs
 n083         3
 Number of processes for MPI-2 version of Molpro:   nprocs(total)=    4   nprocs(compute)=    3   nprocs(helper)=    1
 ga_uses_ma=false, calling ma_init with nominal heap.
 GA-space will be limited to   8.0 MW (determined by -G option)

 Using customized tuning parameters: mindgm=10; mindgv=16; mindgc=4; mindgr=1; noblas=0; mincuda=1000; minvec=7
 default implementation of scratch files=sf  

 ***,Frequencies for min3
 memory,1000,m
 gthresh,energy=1.0d-10,orbital=1.0d-10,oneint=1.0d-16,twoint=1.0d-16,optgrad=1.0d-6,compress=1.0d-13
 geomtyp=xyz
 
  geometry = {
  12
  arbitrary comment
     C    1.776964391707    0.711398808326   -0.047331391796
     C    0.491811976407   -0.059992870174   -0.196493901896
     C    0.450332819107   -1.536294019674    0.101417522804
     O   -0.560767745493    0.727234937526    0.254453964104
     O   -1.837840335593    0.092269037726   -0.120744006066
     H    2.585111305565    0.211538876738   -0.611728301163
     H    1.660272748897    1.742940268964   -0.426107706419
     H    2.095663105945    0.773849339803    1.017697983927
     H   -0.504967851860   -1.982733758472   -0.219237417343
     H    1.281700467581   -2.047149628573   -0.417194329171
     H    0.561205232852   -1.718333139371    1.194118079873
     H   -1.987301400531    0.549976045593   -0.963997443462
  }
 
 basis=cc-pvdz
 {rhf;maxit,200}
 {uccsd(t);maxit,200}

 Variables initialized (661), CPU time= 0.00 sec
 Commands  initialized (458), CPU time= 0.00 sec, 486 directives.
 Default parameters read. Elapsed time= 0.04 sec

 Checking input...
 Passed
1


                                         ***  PROGRAM SYSTEM MOLPRO  ***
                         Copyright, University College Cardiff Consultants Limited, 2008

                                    Version 2010.1 linked May 16 2016 07:17:05


 **********************************************************************************************************************************
 LABEL *   Frequencies for min3                                                          
 Linux-4.4.3/n083(x86_64) 64 bit mpp version                                             DATE: 07-Mar-20          TIME: 03:46:49  
 **********************************************************************************************************************************

 SHA1:             9e8077add272b0f3cad6f7df79ec5211205f459d
 **********************************************************************************************************************************

 THRESHOLDS:

 ZERO    =  1.00D-12  ONEINT  =  1.00D-16  TWOINT  =  1.00D-16  PREFAC  =  1.00D-14  LOCALI  =  1.00D-09  EORDER  =  1.00D-04
 ENERGY  =  1.00D-10  ETEST   =  0.00D+00  EDENS   =  0.00D+00  THRDEDEF=  1.00D-06  GRADIENT=  1.00D-02  STEP    =  1.00D-03
 ORBITAL =  1.00D-10  CIVEC   =  1.00D-05  COEFF   =  1.00D-04  PRINTCI =  5.00D-02  PUNCHCI =  9.90D+01  OPTGRAD =  1.00D-06
 OPTENERG=  1.00D-06  OPTSTEP =  3.00D-04  THRGRAD =  1.00D-10  COMPRESS=  1.00D-13  VARMIN  =  1.00D-07  VARMAX  =  1.00D-03
 THRDOUB =  0.00D+00  THRDIV  =  1.00D-05  THRRED  =  1.00D-07  THRPSP  =  1.00D+00  THRDC   =  1.00D-10  THRCS   =  1.00D-10
 THRNRM  =  1.00D-08  THREQ   =  0.00D+00  THRDE   =  1.00D+00  THRREF  =  1.00D-05  SPARFAC =  1.00D+00  THRDLP  =  1.00D-07
 THRDIA  =  1.00D-10  THRDLS  =  1.00D-07  THRGPS  =  0.00D+00  THRKEX  =  0.00D+00  THRDIS  =  2.00D-01  THRVAR  =  1.00D-10
 THRLOC  =  1.00D-06  THRGAP  =  1.00D-06  THRLOCT = -1.00D+00  THRGAPT = -1.00D+00  THRORB  =  1.00D-06  THRMLTP =  0.00D+00
 THRCPQCI=  1.00D-10  KEXTA   =  0.00D+00  THRCOARS=  0.00D+00  SYMTOL  =  1.00D-06  GRADTOL =  1.00D-06  THROVL  =  1.00D-08
 THRORTH =  1.00D-08  GRID    =  1.00D-06  GRIDMAX =  1.00D-03  DTMAX   =  0.00D+00

 SETTING GEOMTYP        =    XYZ

 Variable memory set to 1000000000 words,  buffer space   230000 words

 SETTING BASIS          =    CC-PVDZ


 Recomputing integrals since basis changed


 Using spherical harmonics

 Library entry C      S cc-pVDZ              selected for orbital group  1
 Library entry C      P cc-pVDZ              selected for orbital group  1
 Library entry C      D cc-pVDZ              selected for orbital group  1
 Library entry O      S cc-pVDZ              selected for orbital group  2
 Library entry O      P cc-pVDZ              selected for orbital group  2
 Library entry O      D cc-pVDZ              selected for orbital group  2
 Library entry H      S cc-pVDZ              selected for orbital group  3
 Library entry H      P cc-pVDZ              selected for orbital group  3

1PROGRAM * SEWARD (Integral evaluation for generally contracted gaussian basis sets)     Author: Roland Lindh, 1990

 Geometry written to block  1 of record 700


 Point group  C1  



 ATOMIC COORDINATES

 NR  ATOM    CHARGE       X              Y              Z

   1  C       6.00    3.357976046    1.344348918   -0.089443368
   2  C       6.00    0.929389944   -0.113370094   -0.371319661
   3  C       6.00    0.851005696   -2.903174955    0.191651343
   4  O       8.00   -1.059697462    1.374274865    0.480848305
   5  O       8.00   -3.473014908    0.174363212   -0.228173103
   6  H       1.00    4.885152387    0.399750543   -1.155998956
   7  H       1.00    3.137460799    3.293679772   -0.805226868
   8  H       1.00    3.960229334    1.462363319    1.923170474
   9  H       1.00   -0.954250945   -3.746823795   -0.414298677
  10  H       1.00    2.422062866   -3.868552148   -0.788383026
  11  H       1.00    1.060524194   -3.247179036    2.256556140
  12  H       1.00   -3.755455388    1.039304105   -1.821691160

 Bond lengths in Bohr (Angstrom)

 1-2  2.846476668  1-6  2.088557993  1-7  2.088268127  1-8  2.104103348  2-3  2.847119878
     ( 1.506290578)     ( 1.105217289)     ( 1.105063899)     ( 1.113443537)     ( 1.506630951)

  2- 4  2.625975338   3- 9  2.082755466   3-10  2.088214817   3-11  2.103822385   4- 5  2.786862111
       ( 1.389606300)       ( 1.102146725)       ( 1.105035689)       ( 1.113294858)       ( 1.474743914)

  5-12  1.834991872
       ( 0.971035877)

 Bond angles

  1-2-3  120.37866573   1-2-4  108.90555081   2-1-6  109.97910901   2-1-7  110.73242559

  2- 1- 8  111.57080827   2- 3- 9  111.29958609   2- 3-10  109.84512673   2- 3-11  110.58252238

  2- 4- 5  109.23589550   3- 2- 4  118.03986083   4- 5-12   98.70086401   6- 1- 7  108.92668613

  6- 1- 8  107.73021757   7- 1- 8  107.80203142   9- 3-10  109.16582614   9- 3-11  107.79677893

 10- 3-11  108.06631142

 NUCLEAR CHARGE:                   41
 NUMBER OF PRIMITIVE AOS:         184
 NUMBER OF SYMMETRY AOS:          179
 NUMBER OF CONTRACTIONS:          105   ( 105A   )
 NUMBER OF CORE ORBITALS:           5   (   5A   )
 NUMBER OF VALENCE ORBITALS:       27   (  27A   )


 NUCLEAR REPULSION ENERGY  183.24752908


 Eigenvalues of metric

         1 0.345E-02 0.435E-02 0.105E-01 0.141E-01 0.182E-01 0.214E-01 0.331E-01 0.345E-01


 Contracted 2-electron integrals neglected if value below      1.0D-16
 AO integral compression algorithm  1   Integral accuracy      1.0D-16

     127.402 MB (compressed) written to integral file ( 93.4%)

     Node minimum: 40.632 MB, node maximum: 43.516 MB


 NUMBER OF SORTED TWO-ELECTRON INTEGRALS:    5164320.     BUFFER LENGTH:  32768
 NUMBER OF SEGMENTS:   1  SEGMENT LENGTH:    5164320      RECORD LENGTH: 524288

 Memory used in sort:       5.72 MW

 SORT1 READ    17075494. AND WROTE     5135941. INTEGRALS IN     15 RECORDS. CPU TIME:     0.19 SEC, REAL TIME:     0.23 SEC
 SORT2 READ    15396730. AND WROTE    15487395. INTEGRALS IN    465 RECORDS. CPU TIME:     0.06 SEC, REAL TIME:     0.09 SEC

 Node minimum:     5160610.  Node maximum:     5164320. integrals

 OPERATOR DM      FOR CENTER  0  COORDINATES:    0.000000    0.000000    0.000000


 **********************************************************************************************************************************
 DATASETS  * FILE   NREC   LENGTH (MB)   RECORD NAMES
              1      18        3.17       500      610      700      900      950      970     1000      129      960     1100   
                                          VAR    BASINP    GEOM    SYMINP    ZMAT    AOBASIS   BASIS     P2S    ABASIS      S 
                                         1400     1410     1200     1210     1080     1600     1650     1700   
                                           T        V       H0       H01     AOSYM     SMH    MOLCAS    OPER   

 PROGRAMS   *        TOTAL       INT
 CPU TIMES  *         0.77      0.73
 REAL TIME  *         1.20 SEC
 DISK USED  *       305.79 MB      
 GA USED    *         0.00 MB       (max)       0.00 MB       (current)
 **********************************************************************************************************************************

1PROGRAM * RHF-SCF (OPEN SHELL)       Authors: W. Meyer, H.-J. Werner


 NUMBER OF ELECTRONS:      21+   20-    SPACE SYMMETRY=1    SPIN SYMMETRY: Doublet 
 CONVERGENCE THRESHOLDS:    1.00E-10 (Density)    1.00E-11 (Energy)
 MAX. NUMBER OF ITERATIONS:      200
 INTERPOLATION TYPE:            DIIS
 INTERPOLATION STEPS:              2 (START)      1 (STEP)
 LEVEL SHIFTS:                 -0.30 (CLOSED)  0.00 (OPEN) 



 Orbital guess generated from atomic densities. Full valence occupancy:   32

 Molecular orbital dump at record        2100.2

 ITERATION    DDIFF          GRAD             ENERGY        2-EL.EN.            DIPOLE MOMENTS         DIIS
    1      0.000D+00      0.000D+00      -267.17834846    555.853735    0.57393    0.04879   -0.74560    0
    2      0.000D+00      0.617D-02      -267.24905977    555.779514    0.41595   -0.13200   -0.59621    1
    3      0.929D-02      0.214D-02      -267.26125283    555.696617    0.39533   -0.05976   -0.62371    2
    4      0.337D-02      0.913D-03      -267.26487368    555.849657    0.38031   -0.09985   -0.64045    3
    5      0.186D-02      0.364D-03      -267.26544534    555.821149    0.38264   -0.09337   -0.63351    4
    6      0.794D-03      0.110D-03      -267.26552228    555.807459    0.38081   -0.09317   -0.63629    5
    7      0.278D-03      0.513D-04      -267.26554263    555.804446    0.38003   -0.09291   -0.63581    6
    8      0.144D-03      0.274D-04      -267.26554875    555.802518    0.38026   -0.09303   -0.63604    7
    9      0.929D-04      0.115D-04      -267.26554968    555.802822    0.38044   -0.09298   -0.63580    8
   10      0.367D-04      0.503D-05      -267.26554984    555.803436    0.38070   -0.09299   -0.63586    9
   11      0.147D-04      0.197D-05      -267.26554986    555.803276    0.38075   -0.09299   -0.63587    9
   12      0.653D-05      0.672D-06      -267.26554987    555.803410    0.38077   -0.09299   -0.63586    9
   13      0.228D-05      0.227D-06      -267.26554987    555.803326    0.38078   -0.09299   -0.63586    9
   14      0.633D-06      0.762D-07      -267.26554987    555.803335    0.38078   -0.09299   -0.63586    9
   15      0.194D-06      0.303D-07      -267.26554987    555.803331    0.38078   -0.09299   -0.63586    9
   16      0.832D-07      0.147D-07      -267.26554987    555.803332    0.38078   -0.09299   -0.63586    9
   17      0.379D-07      0.758D-08      -267.26554987    555.803332    0.38078   -0.09299   -0.63586    9
   18      0.225D-07      0.344D-08      -267.26554987    555.803332    0.38078   -0.09299   -0.63586    9
   19      0.115D-07      0.134D-08      -267.26554987    555.803332    0.38078   -0.09299   -0.63586    9
   20      0.445D-08      0.574D-09      -267.26554987    555.803332    0.38078   -0.09299   -0.63586    9
   21      0.168D-08      0.290D-09      -267.26554987    555.803332    0.38078   -0.09299   -0.63586    9
   22      0.766D-09      0.163D-09      -267.26554987    555.803332    0.38078   -0.09299   -0.63586    9
   23      0.450D-09      0.804D-10      -267.26554987    555.803332    0.38078   -0.09299   -0.63586    9
   24      0.266D-09      0.321D-10      -267.26554987    555.803332    0.38078   -0.09299   -0.63586    9
   25      0.944D-10      0.131D-10      -267.26554987    555.803332    0.38078   -0.09299   -0.63586    0

 Final alpha occupancy:  21
 Final beta  occupancy:  20

 !RHF STATE 1.1 Energy               -267.265549867116
 Nuclear energy                       183.24752908
 One-electron energy                 -728.41474512
 Two-electron energy                  277.90166616
 Virial quotient                       -1.00152752
 !RHF STATE 1.1 Dipole moment           0.38077931    -0.09299325    -0.63585786
 Dipole moment /Debye                   0.96778109    -0.23634978    -1.61608363

 Orbital energies:

         1.1          2.1          3.1          4.1          5.1          6.1          7.1          8.1          9.1         10.1
    -20.630547   -20.628548   -11.279273   -11.237902   -11.232092    -1.470526    -1.241354    -1.023312    -0.945434    -0.768630

        11.1         12.1         13.1         14.1         15.1         16.1         17.1         18.1         19.1         20.1
     -0.705189    -0.643085    -0.626854    -0.588967    -0.545225    -0.543468    -0.539082    -0.517059    -0.493108    -0.469897

        21.1         22.1         23.1
     -0.352310     0.181522     0.183717


 **********************************************************************************************************************************
 DATASETS  * FILE   NREC   LENGTH (MB)   RECORD NAMES
              1      18        3.17       500      610      700      900      950      970     1000      129      960     1100   
                                          VAR    BASINP    GEOM    SYMINP    ZMAT    AOBASIS   BASIS     P2S    ABASIS      S 
                                         1400     1410     1200     1210     1080     1600     1650     1700   
                                           T        V       H0       H01     AOSYM     SMH    MOLCAS    OPER   

              2       3        0.77       700     1000     2100   
                                         GEOM     BASIS     RHF  

 PROGRAMS   *        TOTAL       RHF       INT
 CPU TIMES  *         1.69      0.92      0.73
 REAL TIME  *         2.26 SEC
 DISK USED  *       322.36 MB      
 SF USED    *         0.04 MB      
 GA USED    *         0.00 MB       (max)       0.00 MB       (current)
 **********************************************************************************************************************************


1PROGRAM * CCSD (Unrestricted open-shell coupled cluster)     Authors: C. Hampel, H.-J. Werner, 1991, M. Deegan, P.J. Knowles, 1992


 Convergence thresholds:  THRVAR = 1.00D-08  THRDEN = 1.00D-10

 CCSD(T)     terms to be evaluated (factor= 1.000)


 Number of core orbitals:           5 (   5 )
 Number of closed-shell orbitals:  15 (  15 )
 Number of active  orbitals:        1 (   1 )
 Number of external orbitals:      84 (  84 )

 Memory could be reduced to 24.91 Mwords without degradation in triples

 Number of N-1 electron functions:              31
 Number of N-2 electron functions:             465
 Number of singly external CSFs:              2635
 Number of doubly external CSFs:           2537250
 Total number of CSFs:                     2539885

 Molecular orbitals read from record     2100.2  Type=RHF/CANONICAL (state 1.1)

 Integral transformation finished. Total CPU:   0.71 sec, npass=  1  Memory used:  12.63 MW

 Starting RMP2 calculation

 ITER.      SQ.NORM     CORR.ENERGY   TOTAL ENERGY   ENERGY CHANGE        DEN1      VAR(S)    VAR(P)  DIIS     TIME
   1      1.24290777    -0.78621867  -268.05176854    -0.78621867    -0.00304761  0.20D-04  0.11D-02  1  1     0.96
   2      1.24554667    -0.78950527  -268.05505513    -0.00328659    -0.00000474  0.54D-06  0.19D-05  2  2     1.20
   3      1.24561217    -0.78954731  -268.05509718    -0.00004204    -0.00000003  0.16D-07  0.68D-08  3  3     1.46
   4      1.24561313    -0.78954731  -268.05509718    -0.00000000    -0.00000000  0.27D-09  0.38D-10  4  4     1.74
   5      1.24561321    -0.78954734  -268.05509721    -0.00000003    -0.00000000  0.25D-11  0.65D-12  5  5     2.05
   6      1.24561322    -0.78954735  -268.05509722    -0.00000001    -0.00000000  0.28D-13  0.86D-14  6  6     2.37
   7      1.24561322    -0.78954735  -268.05509722     0.00000000    -0.00000000  0.46D-15  0.12D-15  6  1     2.70
   8      1.24561322    -0.78954735  -268.05509722     0.00000000    -0.00000000  0.59D-17  0.12D-17  6  2     3.03

 Norm of t1 vector:      0.03892793      S-energy:    -0.00227137      T1 diagnostic:  0.00055009
 Norm of t2 vector:      0.49406259      P-energy:    -0.78727597
                                         Alpha-Beta:  -0.59328841
                                         Alpha-Alpha: -0.10092409
                                         Beta-Beta:   -0.09306348

 Spin contamination <S**2-Sz**2-Sz>     0.00104053
  Reference energy                   -267.265549867117
  RHF-RMP2 correlation energy          -0.789547348526
 !RHF-RMP2 energy                    -268.055097215643

 Starting UCCSD calculation

 ITER.      SQ.NORM     CORR.ENERGY   TOTAL ENERGY   ENERGY CHANGE        DEN1      VAR(S)    VAR(P)  DIIS     TIME
   1      1.26269005    -0.80892004  -268.07446991    -0.80892004    -0.02513964  0.37D-02  0.59D-02  1  1     7.76
   2      1.29143776    -0.83631250  -268.10186236    -0.02739246    -0.00200813  0.22D-03  0.66D-03  2  2    12.47
   3      1.30136351    -0.84080421  -268.10635407    -0.00449171    -0.00032421  0.19D-03  0.56D-04  3  3    17.22
   4      1.30626929    -0.84227920  -268.10782907    -0.00147499    -0.00007201  0.43D-04  0.14D-04  4  4    21.98
   5      1.30899687    -0.84266704  -268.10821690    -0.00038784    -0.00002364  0.19D-04  0.32D-05  5  5    26.76
   6      1.31093384    -0.84287132  -268.10842119    -0.00020429    -0.00000645  0.42D-05  0.12D-05  6  6    31.57
   7      1.31188157    -0.84293002  -268.10847988    -0.00005869    -0.00000208  0.14D-05  0.37D-06  6  2    37.36
   8      1.31232239    -0.84297264  -268.10852251    -0.00004262    -0.00000065  0.45D-06  0.11D-06  6  1    43.11
   9      1.31250736    -0.84297721  -268.10852708    -0.00000457    -0.00000022  0.15D-06  0.35D-07  6  4    48.85
  10      1.31257050    -0.84298013  -268.10853000    -0.00000292    -0.00000005  0.35D-07  0.95D-08  6  3    54.57
  11      1.31260007    -0.84297888  -268.10852875     0.00000125    -0.00000002  0.13D-07  0.28D-08  6  5    60.28
  12      1.31261047    -0.84297863  -268.10852850     0.00000025    -0.00000000  0.26D-08  0.95D-09  6  6    66.00
  13      1.31260933    -0.84297772  -268.10852758     0.00000091    -0.00000000  0.96D-09  0.28D-09  6  2    71.75
  14      1.31260412    -0.84297687  -268.10852674     0.00000084    -0.00000000  0.21D-09  0.67D-10  6  1    77.53
  15      1.31260005    -0.84297629  -268.10852615     0.00000059    -0.00000000  0.78D-10  0.19D-10  6  4    83.11
  16      1.31259687    -0.84297590  -268.10852577     0.00000038    -0.00000000  0.28D-10  0.63D-11  6  3    88.83
  17      1.31259467    -0.84297567  -268.10852553     0.00000024    -0.00000000  0.10D-10  0.24D-11  6  5    94.57
  18      1.31259377    -0.84297561  -268.10852547     0.00000006    -0.00000000  0.41D-11  0.87D-12  6  6   100.29
  19      1.31259316    -0.84297557  -268.10852544     0.00000003    -0.00000000  0.16D-11  0.37D-12  6  2   106.00
  20      1.31259284    -0.84297556  -268.10852543     0.00000001    -0.00000000  0.60D-12  0.13D-12  6  1   111.70
  21      1.31259268    -0.84297555  -268.10852542     0.00000001    -0.00000000  0.28D-12  0.58D-13  6  4   117.33
  22      1.31259256    -0.84297554  -268.10852541     0.00000001    -0.00000000  0.73D-13  0.21D-13  6  3   123.52
  23      1.31259250    -0.84297554  -268.10852541     0.00000000    -0.00000000  0.21D-13  0.62D-14  6  5   129.92
  24      1.31259249    -0.84297554  -268.10852541    -0.00000000    -0.00000000  0.67D-14  0.22D-14  6  6   136.29
  25      1.31259250    -0.84297554  -268.10852541    -0.00000000    -0.00000000  0.21D-14  0.52D-15  6  2   142.74
  26      1.31259250    -0.84297554  -268.10852541    -0.00000000    -0.00000000  0.76D-15  0.15D-15  6  1   148.62
  27      1.31259251    -0.84297554  -268.10852541    -0.00000000    -0.00000000  0.20D-15  0.62D-16  6  3   154.97
  28      1.31259252    -0.84297554  -268.10852541    -0.00000000    -0.00000000  0.30D-16  0.11D-16  6  4   160.87
  29      1.31259252    -0.84297554  -268.10852541    -0.00000000    -0.00000000  0.70D-17  0.29D-17  6  5   166.61
  30      1.31259252    -0.84297554  -268.10852541    -0.00000000    -0.00000000  0.15D-17  0.54D-18  6  6   172.34
  31      1.31259252    -0.84297554  -268.10852541    -0.00000000    -0.00000000  0.35D-18  0.10D-18  6  2   178.08

 Norm of t1 vector:      0.13864021      S-energy:    -0.00282085      T1 diagnostic:  0.01615910
                                                                       D1 diagnostic:  0.06280906
 Norm of t2 vector:      0.54163771      P-energy:    -0.84015469
                                         Alpha-Beta:  -0.66471714
                                         Alpha-Alpha: -0.09146982
                                         Beta-Beta:   -0.08396773

 Spin contamination <S**2-Sz**2-Sz>     0.00217090

 Memory could be reduced to 28.85 Mwords without degradation in triples
 

 RESULTS
 =======

  Reference energy                   -267.265549867117
  UCCSD singles energy                 -0.002820852402
  UCCSD pair energy                    -0.840154690221
  UCCSD correlation energy             -0.842975542622
  Triples (T) contribution             -0.024962065570
  Total correlation energy             -0.867937608193
 
  RHF-UCCSD energy                   -268.108525409739
  RHF-UCCSD[T] energy                -268.134821532784
  RHF-UCCSD-T energy                 -268.133066744470
 !RHF-UCCSD(T) energy                -268.133487475309

 Program statistics:

 Available memory in ccsd:               999997692
 Min. memory needed in ccsd:               7337057
 Max. memory used in ccsd:                10523002
 Max. memory used in cckext:              10867977 (31 integral passes)
 Max. memory used in cckint:              12633073 ( 1 integral passes)



 **********************************************************************************************************************************
 DATASETS  * FILE   NREC   LENGTH (MB)   RECORD NAMES
              1      18        3.17       500      610      700      900      950      970     1000      129      960     1100   
                                          VAR    BASINP    GEOM    SYMINP    ZMAT    AOBASIS   BASIS     P2S    ABASIS      S 
                                         1400     1410     1200     1210     1080     1600     1650     1700   
                                           T        V       H0       H01     AOSYM     SMH    MOLCAS    OPER   

              2       3        0.77       700     1000     2100   
                                         GEOM     BASIS     RHF  

 PROGRAMS   *        TOTAL  UCCSD(T)       RHF       INT
 CPU TIMES  *       219.53    217.84      0.92      0.73
 REAL TIME  *       229.70 SEC
 DISK USED  *         1.29 GB      
 SF USED    *       553.73 MB      
 GA USED    *         0.00 MB       (max)       0.00 MB       (current)
 **********************************************************************************************************************************

        UCCSD(T)        RHF-SCF 
   -268.13348748   -267.26554987
 **********************************************************************************************************************************
 Variable memory released
