
 Primary working directories    : /tmp/320938.474.gen4.q
 Secondary working directories  : /tmp/320938.474.gen4.q
 Wavefunction directory         : /home/vulcan/mel64643/wfu/
 Main file repository           : /tmp/320938.474.gen4.q/

 ARCHNAME  : Linux/x86_64
 FC        : /opt/intel/compilers_and_libraries_2016.1.150/linux/bin/intel64/ifort
 FCVERSION : 16.0.1
 BLASLIB   : -mkl
 id        : ccgc

 Nodes     nprocs
 n024         3
 Number of processes for MPI-2 version of Molpro:   nprocs(total)=    4   nprocs(compute)=    3   nprocs(helper)=    1
 ga_uses_ma=false, calling ma_init with nominal heap.
 GA-space will be limited to   8.0 MW (determined by -G option)

 Using customized tuning parameters: mindgm=10; mindgv=16; mindgc=4; mindgr=1; noblas=0; mincuda=1000; minvec=7
 default implementation of scratch files=sf  

 ***,Frequencies for min3
 memory,1000,m
 gthresh,energy=1.0d-10,orbital=1.0d-10,oneint=1.0d-16,twoint=1.0d-16,optgrad=1.0d-6,compress=1.0d-13
 geomtyp=xyz
 
  geometry = {
  12
  arbitrary comment
     C    1.776964391707    0.711398808326   -0.047331391796
     C    0.491811976407   -0.059992870174   -0.196493901896
     C    0.450332819107   -1.536294019674    0.101417522804
     O   -0.560767745493    0.727234937526    0.254453964104
     O   -1.837840335593    0.092269037726   -0.120531795196
     H    2.585373063107    0.211465914126   -0.611440883996
     H    1.660426393907    1.740618909321   -0.428139571790
     H    2.094443676234    0.774521819622    1.019305160719
     H   -0.504470284153   -1.982362069742   -0.220567022768
     H    1.282352866647   -2.046129197556   -0.417332252727
     H    0.561830227618   -1.719267706097    1.194624351312
     H   -1.988272334910    0.551240335008   -0.966266855019
  }
 
 basis=cc-pvdz
 {rhf;maxit,200}
 {uccsd(t);maxit,200}

 Variables initialized (661), CPU time= 0.01 sec
 Commands  initialized (458), CPU time= 0.01 sec, 486 directives.
 Default parameters read. Elapsed time= 0.08 sec

 Checking input...
 Passed
1


                                         ***  PROGRAM SYSTEM MOLPRO  ***
                         Copyright, University College Cardiff Consultants Limited, 2008

                                    Version 2010.1 linked May 16 2016 07:17:05


 **********************************************************************************************************************************
 LABEL *   Frequencies for min3                                                          
 Linux-4.4.3/n024(x86_64) 64 bit mpp version                                             DATE: 07-Mar-20          TIME: 03:44:20  
 **********************************************************************************************************************************

 SHA1:             9e8077add272b0f3cad6f7df79ec5211205f459d
 **********************************************************************************************************************************

 THRESHOLDS:

 ZERO    =  1.00D-12  ONEINT  =  1.00D-16  TWOINT  =  1.00D-16  PREFAC  =  1.00D-14  LOCALI  =  1.00D-09  EORDER  =  1.00D-04
 ENERGY  =  1.00D-10  ETEST   =  0.00D+00  EDENS   =  0.00D+00  THRDEDEF=  1.00D-06  GRADIENT=  1.00D-02  STEP    =  1.00D-03
 ORBITAL =  1.00D-10  CIVEC   =  1.00D-05  COEFF   =  1.00D-04  PRINTCI =  5.00D-02  PUNCHCI =  9.90D+01  OPTGRAD =  1.00D-06
 OPTENERG=  1.00D-06  OPTSTEP =  3.00D-04  THRGRAD =  1.00D-10  COMPRESS=  1.00D-13  VARMIN  =  1.00D-07  VARMAX  =  1.00D-03
 THRDOUB =  0.00D+00  THRDIV  =  1.00D-05  THRRED  =  1.00D-07  THRPSP  =  1.00D+00  THRDC   =  1.00D-10  THRCS   =  1.00D-10
 THRNRM  =  1.00D-08  THREQ   =  0.00D+00  THRDE   =  1.00D+00  THRREF  =  1.00D-05  SPARFAC =  1.00D+00  THRDLP  =  1.00D-07
 THRDIA  =  1.00D-10  THRDLS  =  1.00D-07  THRGPS  =  0.00D+00  THRKEX  =  0.00D+00  THRDIS  =  2.00D-01  THRVAR  =  1.00D-10
 THRLOC  =  1.00D-06  THRGAP  =  1.00D-06  THRLOCT = -1.00D+00  THRGAPT = -1.00D+00  THRORB  =  1.00D-06  THRMLTP =  0.00D+00
 THRCPQCI=  1.00D-10  KEXTA   =  0.00D+00  THRCOARS=  0.00D+00  SYMTOL  =  1.00D-06  GRADTOL =  1.00D-06  THROVL  =  1.00D-08
 THRORTH =  1.00D-08  GRID    =  1.00D-06  GRIDMAX =  1.00D-03  DTMAX   =  0.00D+00

 SETTING GEOMTYP        =    XYZ

 Variable memory set to 1000000000 words,  buffer space   230000 words

 SETTING BASIS          =    CC-PVDZ


 Recomputing integrals since basis changed


 Using spherical harmonics

 Library entry C      S cc-pVDZ              selected for orbital group  1
 Library entry C      P cc-pVDZ              selected for orbital group  1
 Library entry C      D cc-pVDZ              selected for orbital group  1
 Library entry O      S cc-pVDZ              selected for orbital group  2
 Library entry O      P cc-pVDZ              selected for orbital group  2
 Library entry O      D cc-pVDZ              selected for orbital group  2
 Library entry H      S cc-pVDZ              selected for orbital group  3
 Library entry H      P cc-pVDZ              selected for orbital group  3

1PROGRAM * SEWARD (Integral evaluation for generally contracted gaussian basis sets)     Author: Roland Lindh, 1990

 Geometry written to block  1 of record 700


 Point group  C1  



 ATOMIC COORDINATES

 NR  ATOM    CHARGE       X              Y              Z

   1  C       6.00    3.357976046    1.344348918   -0.089443368
   2  C       6.00    0.929389944   -0.113370094   -0.371319661
   3  C       6.00    0.851005696   -2.903174955    0.191651343
   4  O       8.00   -1.059697462    1.374274865    0.480848305
   5  O       8.00   -3.473014908    0.174363212   -0.227772083
   6  H       1.00    4.885647037    0.399612664   -1.155455816
   7  H       1.00    3.137751146    3.289293038   -0.809066537
   8  H       1.00    3.957924946    1.463634122    1.926207598
   9  H       1.00   -0.953310678   -3.746121405   -0.416811267
  10  H       1.00    2.423295722   -3.866623813   -0.788643663
  11  H       1.00    1.061705263   -3.248945111    2.257512854
  12  H       1.00   -3.757290188    1.041693266   -1.825979726

 Bond lengths in Bohr (Angstrom)

 1-2  2.846476668  1-6  2.088704811  1-7  2.085464970  1-8  2.106422669  2-3  2.847119878
     ( 1.506290578)     ( 1.105294982)     ( 1.103580532)     ( 1.114670869)     ( 1.506630951)

  2- 4  2.625975338   3- 9  2.082388783   3-10  2.088374470   3-11  2.105168661   4- 5  2.786760112
       ( 1.389606300)       ( 1.101952684)       ( 1.105120173)       ( 1.114007276)       ( 1.474689938)

  5-12  1.840473180
       ( 0.973936461)

 Bond angles

  1-2-3  120.37866573   1-2-4  108.90555081   2-1-6  109.98947225   2-1-7  110.69169565

  2- 1- 8  111.51620391   2- 3- 9  111.26776138   2- 3-10  109.78595073   2- 3-11  110.62363324

  2- 4- 5  109.23946113   3- 2- 4  118.03986083   4- 5-12   98.72304691   6- 1- 7  108.84168050

  6- 1- 8  107.79878809   7- 1- 8  107.90619386   9- 3-10  109.17380508   9- 3-11  107.87691009

 10- 3-11  108.02994054

 NUCLEAR CHARGE:                   41
 NUMBER OF PRIMITIVE AOS:         184
 NUMBER OF SYMMETRY AOS:          179
 NUMBER OF CONTRACTIONS:          105   ( 105A   )
 NUMBER OF CORE ORBITALS:           5   (   5A   )
 NUMBER OF VALENCE ORBITALS:       27   (  27A   )


 NUCLEAR REPULSION ENERGY  183.23124191


 Eigenvalues of metric

         1 0.345E-02 0.435E-02 0.105E-01 0.141E-01 0.182E-01 0.214E-01 0.331E-01 0.346E-01


 Contracted 2-electron integrals neglected if value below      1.0D-16
 AO integral compression algorithm  1   Integral accuracy      1.0D-16

     127.402 MB (compressed) written to integral file ( 93.4%)

     Node minimum: 40.370 MB, node maximum: 44.040 MB


 NUMBER OF SORTED TWO-ELECTRON INTEGRALS:    5164320.     BUFFER LENGTH:  32768
 NUMBER OF SEGMENTS:   1  SEGMENT LENGTH:    5164320      RECORD LENGTH: 524288

 Memory used in sort:       5.72 MW

 SORT1 READ    17075548. AND WROTE     5135924. INTEGRALS IN     15 RECORDS. CPU TIME:     0.36 SEC, REAL TIME:     0.41 SEC
 SORT2 READ    15396706. AND WROTE    15487395. INTEGRALS IN    504 RECORDS. CPU TIME:     0.11 SEC, REAL TIME:     0.16 SEC

 Node minimum:     5160610.  Node maximum:     5164320. integrals

 OPERATOR DM      FOR CENTER  0  COORDINATES:    0.000000    0.000000    0.000000


 **********************************************************************************************************************************
 DATASETS  * FILE   NREC   LENGTH (MB)   RECORD NAMES
              1      18        3.17       500      610      700      900      950      970     1000      129      960     1100   
                                          VAR    BASINP    GEOM    SYMINP    ZMAT    AOBASIS   BASIS     P2S    ABASIS      S 
                                         1400     1410     1200     1210     1080     1600     1650     1700   
                                           T        V       H0       H01     AOSYM     SMH    MOLCAS    OPER   

 PROGRAMS   *        TOTAL       INT
 CPU TIMES  *         1.89      1.79
 REAL TIME  *         2.23 SEC
 DISK USED  *       305.97 MB      
 GA USED    *         0.00 MB       (max)       0.00 MB       (current)
 **********************************************************************************************************************************

1PROGRAM * RHF-SCF (OPEN SHELL)       Authors: W. Meyer, H.-J. Werner


 NUMBER OF ELECTRONS:      21+   20-    SPACE SYMMETRY=1    SPIN SYMMETRY: Doublet 
 CONVERGENCE THRESHOLDS:    1.00E-10 (Density)    1.00E-11 (Energy)
 MAX. NUMBER OF ITERATIONS:      200
 INTERPOLATION TYPE:            DIIS
 INTERPOLATION STEPS:              2 (START)      1 (STEP)
 LEVEL SHIFTS:                 -0.30 (CLOSED)  0.00 (OPEN) 



 Orbital guess generated from atomic densities. Full valence occupancy:   32

 Molecular orbital dump at record        2100.2

 ITERATION    DDIFF          GRAD             ENERGY        2-EL.EN.            DIPOLE MOMENTS         DIIS
    1      0.000D+00      0.000D+00      -267.17826961    555.834094    0.57071    0.04968   -0.74866    0
    2      0.000D+00      0.617D-02      -267.24895796    555.755964    0.41410   -0.13070   -0.59884    1
    3      0.928D-02      0.214D-02      -267.26113614    555.673761    0.39369   -0.05863   -0.62635    2
    4      0.336D-02      0.912D-03      -267.26474533    555.826187    0.37898   -0.09870   -0.64287    3
    5      0.186D-02      0.363D-03      -267.26531467    555.797591    0.38147   -0.09219   -0.63589    4
    6      0.792D-03      0.110D-03      -267.26539115    555.783842    0.37971   -0.09198   -0.63865    5
    7      0.277D-03      0.511D-04      -267.26541131    555.780840    0.37899   -0.09172   -0.63814    6
    8      0.144D-03      0.273D-04      -267.26541737    555.778894    0.37926   -0.09183   -0.63836    7
    9      0.925D-04      0.115D-04      -267.26541829    555.779208    0.37944   -0.09179   -0.63812    8
   10      0.366D-04      0.501D-05      -267.26541845    555.779820    0.37970   -0.09180   -0.63818    9
   11      0.147D-04      0.197D-05      -267.26541848    555.779661    0.37975   -0.09180   -0.63819    9
   12      0.651D-05      0.671D-06      -267.26541848    555.779796    0.37977   -0.09180   -0.63818    9
   13      0.227D-05      0.227D-06      -267.26541848    555.779711    0.37977   -0.09180   -0.63818    9
   14      0.632D-06      0.759D-07      -267.26541848    555.779720    0.37977   -0.09180   -0.63818    9
   15      0.193D-06      0.302D-07      -267.26541848    555.779716    0.37978   -0.09180   -0.63818    9
   16      0.829D-07      0.146D-07      -267.26541848    555.779718    0.37978   -0.09180   -0.63818    9
   17      0.377D-07      0.756D-08      -267.26541848    555.779718    0.37978   -0.09180   -0.63818    9
   18      0.224D-07      0.343D-08      -267.26541848    555.779718    0.37978   -0.09180   -0.63818    9
   19      0.115D-07      0.134D-08      -267.26541848    555.779718    0.37978   -0.09180   -0.63818    9
   20      0.444D-08      0.570D-09      -267.26541848    555.779718    0.37978   -0.09180   -0.63818    9
   21      0.166D-08      0.288D-09      -267.26541848    555.779718    0.37978   -0.09180   -0.63818    9
   22      0.758D-09      0.162D-09      -267.26541848    555.779718    0.37978   -0.09180   -0.63818    9
   23      0.448D-09      0.800D-10      -267.26541848    555.779718    0.37978   -0.09180   -0.63818    9
   24      0.265D-09      0.318D-10      -267.26541848    555.779718    0.37978   -0.09180   -0.63818    9
   25      0.936D-10      0.130D-10      -267.26541848    555.779718    0.37978   -0.09180   -0.63818    0

 Final alpha occupancy:  21
 Final beta  occupancy:  20

 !RHF STATE 1.1 Energy               -267.265418480105
 Nuclear energy                       183.23124191
 One-electron energy                 -728.38651935
 Two-electron energy                  277.88985896
 Virial quotient                       -1.00154814
 !RHF STATE 1.1 Dipole moment           0.37977670    -0.09180122    -0.63817989
 Dipole moment /Debye                   0.96523287    -0.23332015    -1.62198525

 Orbital energies:

         1.1          2.1          3.1          4.1          5.1          6.1          7.1          8.1          9.1         10.1
    -20.630469   -20.628780   -11.279228   -11.237868   -11.232113    -1.470208    -1.240806    -1.023246    -0.945396    -0.768428

        11.1         12.1         13.1         14.1         15.1         16.1         17.1         18.1         19.1         20.1
     -0.704674    -0.643070    -0.626755    -0.588762    -0.545186    -0.543472    -0.538963    -0.517092    -0.492983    -0.469757

        21.1         22.1         23.1
     -0.352290     0.181344     0.183547


 **********************************************************************************************************************************
 DATASETS  * FILE   NREC   LENGTH (MB)   RECORD NAMES
              1      18        3.17       500      610      700      900      950      970     1000      129      960     1100   
                                          VAR    BASINP    GEOM    SYMINP    ZMAT    AOBASIS   BASIS     P2S    ABASIS      S 
                                         1400     1410     1200     1210     1080     1600     1650     1700   
                                           T        V       H0       H01     AOSYM     SMH    MOLCAS    OPER   

              2       3        0.77       700     1000     2100   
                                         GEOM     BASIS     RHF  

 PROGRAMS   *        TOTAL       RHF       INT
 CPU TIMES  *         3.82      1.93      1.79
 REAL TIME  *         4.34 SEC
 DISK USED  *       322.54 MB      
 SF USED    *         0.04 MB      
 GA USED    *         0.00 MB       (max)       0.00 MB       (current)
 **********************************************************************************************************************************


1PROGRAM * CCSD (Unrestricted open-shell coupled cluster)     Authors: C. Hampel, H.-J. Werner, 1991, M. Deegan, P.J. Knowles, 1992


 Convergence thresholds:  THRVAR = 1.00D-08  THRDEN = 1.00D-10

 CCSD(T)     terms to be evaluated (factor= 1.000)


 Number of core orbitals:           5 (   5 )
 Number of closed-shell orbitals:  15 (  15 )
 Number of active  orbitals:        1 (   1 )
 Number of external orbitals:      84 (  84 )

 Memory could be reduced to 24.91 Mwords without degradation in triples

 Number of N-1 electron functions:              31
 Number of N-2 electron functions:             465
 Number of singly external CSFs:              2635
 Number of doubly external CSFs:           2537250
 Total number of CSFs:                     2539885

 Molecular orbitals read from record     2100.2  Type=RHF/CANONICAL (state 1.1)

 Integral transformation finished. Total CPU:   1.56 sec, npass=  1  Memory used:  12.63 MW

 Starting RMP2 calculation

 ITER.      SQ.NORM     CORR.ENERGY   TOTAL ENERGY   ENERGY CHANGE        DEN1      VAR(S)    VAR(P)  DIIS     TIME
   1      1.24300662    -0.78634939  -268.05176787    -0.78634939    -0.00304935  0.20D-04  0.11D-02  1  1     2.03
   2      1.24564753    -0.78963789  -268.05505638    -0.00328850    -0.00000474  0.54D-06  0.19D-05  2  2     2.45
   3      1.24571308    -0.78967996  -268.05509844    -0.00004207    -0.00000003  0.16D-07  0.68D-08  3  3     2.90
   4      1.24571403    -0.78967996  -268.05509844    -0.00000000    -0.00000000  0.27D-09  0.38D-10  4  4     3.40
   5      1.24571412    -0.78968000  -268.05509848    -0.00000003    -0.00000000  0.25D-11  0.65D-12  5  5     3.94
   6      1.24571413    -0.78968000  -268.05509848    -0.00000001    -0.00000000  0.28D-13  0.87D-14  6  6     4.52
   7      1.24571413    -0.78968000  -268.05509848     0.00000000    -0.00000000  0.47D-15  0.12D-15  6  1     5.10
   8      1.24571413    -0.78968000  -268.05509848     0.00000000    -0.00000000  0.59D-17  0.13D-17  6  2     5.68

 Norm of t1 vector:      0.03893102      S-energy:    -0.00227136      T1 diagnostic:  0.00055035
 Norm of t2 vector:      0.49416445      P-energy:    -0.78740865
                                         Alpha-Beta:  -0.59339367
                                         Alpha-Alpha: -0.10093850
                                         Beta-Beta:   -0.09307648

 Spin contamination <S**2-Sz**2-Sz>     0.00104041
  Reference energy                   -267.265418480105
  RHF-RMP2 correlation energy          -0.789680001729
 !RHF-RMP2 energy                    -268.055098481834

 Starting UCCSD calculation

 ITER.      SQ.NORM     CORR.ENERGY   TOTAL ENERGY   ENERGY CHANGE        DEN1      VAR(S)    VAR(P)  DIIS     TIME
   1      1.26278093    -0.80902466  -268.07444314    -0.80902466    -0.02515366  0.38D-02  0.59D-02  1  1    15.82
   2      1.29155135    -0.83643144  -268.10184992    -0.02740677    -0.00201073  0.22D-03  0.66D-03  2  2    25.94
   3      1.30149060    -0.84092862  -268.10634710    -0.00449718    -0.00032459  0.19D-03  0.56D-04  3  3    36.14
   4      1.30640329    -0.84240552  -268.10782400    -0.00147690    -0.00007208  0.43D-04  0.14D-04  4  4    46.34
   5      1.30913323    -0.84279366  -268.10821214    -0.00038814    -0.00002367  0.19D-04  0.32D-05  5  5    56.61
   6      1.31107202    -0.84299811  -268.10841659    -0.00020445    -0.00000645  0.42D-05  0.12D-05  6  6    66.75
   7      1.31202085    -0.84305687  -268.10847535    -0.00005876    -0.00000208  0.14D-05  0.37D-06  6  2    77.09
   8      1.31246210    -0.84309953  -268.10851801    -0.00004266    -0.00000065  0.45D-06  0.11D-06  6  1    86.78
   9      1.31264720    -0.84310411  -268.10852259    -0.00000458    -0.00000022  0.15D-06  0.35D-07  6  4    96.00
  10      1.31271037    -0.84310704  -268.10852552    -0.00000293    -0.00000005  0.35D-07  0.95D-08  6  3   105.00
  11      1.31273988    -0.84310579  -268.10852427     0.00000126    -0.00000002  0.13D-07  0.28D-08  6  5   115.06
  12      1.31275025    -0.84310552  -268.10852400     0.00000026    -0.00000000  0.26D-08  0.95D-09  6  6   125.15
  13      1.31274910    -0.84310461  -268.10852309     0.00000092    -0.00000000  0.96D-09  0.28D-09  6  2   134.01
  14      1.31274389    -0.84310376  -268.10852224     0.00000084    -0.00000000  0.21D-09  0.67D-10  6  1   142.23
  15      1.31273982    -0.84310318  -268.10852166     0.00000059    -0.00000000  0.78D-10  0.19D-10  6  4   150.48
  16      1.31273663    -0.84310279  -268.10852127     0.00000038    -0.00000000  0.28D-10  0.63D-11  6  3   158.73
  17      1.31273443    -0.84310256  -268.10852104     0.00000024    -0.00000000  0.10D-10  0.24D-11  6  5   166.97
  18      1.31273353    -0.84310250  -268.10852098     0.00000006    -0.00000000  0.41D-11  0.87D-12  6  6   175.22
  19      1.31273292    -0.84310246  -268.10852094     0.00000003    -0.00000000  0.16D-11  0.37D-12  6  2   183.46
  20      1.31273260    -0.84310245  -268.10852093     0.00000001    -0.00000000  0.60D-12  0.13D-12  6  1   191.72
  21      1.31273244    -0.84310244  -268.10852092     0.00000001    -0.00000000  0.28D-12  0.58D-13  6  4   199.98
  22      1.31273232    -0.84310243  -268.10852091     0.00000001    -0.00000000  0.74D-13  0.21D-13  6  3   208.22
  23      1.31273226    -0.84310243  -268.10852091     0.00000000    -0.00000000  0.21D-13  0.63D-14  6  5   216.47
  24      1.31273225    -0.84310243  -268.10852091    -0.00000000    -0.00000000  0.67D-14  0.23D-14  6  6   224.72
  25      1.31273226    -0.84310243  -268.10852091    -0.00000000    -0.00000000  0.21D-14  0.52D-15  6  2   232.65
  26      1.31273226    -0.84310243  -268.10852091    -0.00000000    -0.00000000  0.77D-15  0.15D-15  6  1   240.91
  27      1.31273227    -0.84310243  -268.10852091    -0.00000000    -0.00000000  0.20D-15  0.62D-16  6  3   249.15
  28      1.31273228    -0.84310243  -268.10852091    -0.00000000    -0.00000000  0.30D-16  0.11D-16  6  4   257.39
  29      1.31273228    -0.84310243  -268.10852091    -0.00000000    -0.00000000  0.71D-17  0.29D-17  6  5   265.64
  30      1.31273228    -0.84310243  -268.10852091    -0.00000000    -0.00000000  0.15D-17  0.54D-18  6  6   273.90
  31      1.31273228    -0.84310243  -268.10852091    -0.00000000    -0.00000000  0.35D-18  0.10D-18  6  2   282.15

 Norm of t1 vector:      0.13870499      S-energy:    -0.00282096      T1 diagnostic:  0.01616755
                                                                       D1 diagnostic:  0.06281707
 Norm of t2 vector:      0.54175013      P-energy:    -0.84028147
                                         Alpha-Beta:  -0.66483818
                                         Alpha-Alpha: -0.09147337
                                         Beta-Beta:   -0.08396991

 Spin contamination <S**2-Sz**2-Sz>     0.00217123

 Memory could be reduced to 28.85 Mwords without degradation in triples
 

 RESULTS
 =======

  Reference energy                   -267.265418480105
  UCCSD singles energy                 -0.002820964976
  UCCSD pair energy                    -0.840281467494
  UCCSD correlation energy             -0.843102432469
  Triples (T) contribution             -0.024973435115
  Total correlation energy             -0.868075867585
 
  RHF-UCCSD energy                   -268.108520912575
  RHF-UCCSD[T] energy                -268.134829822013
  RHF-UCCSD-T energy                 -268.133073005509
 !RHF-UCCSD(T) energy                -268.133494347690

 Program statistics:

 Available memory in ccsd:               999997692
 Min. memory needed in ccsd:               7337057
 Max. memory used in ccsd:                10523002
 Max. memory used in cckext:              10867977 (31 integral passes)
 Max. memory used in cckint:              12633073 ( 1 integral passes)



 **********************************************************************************************************************************
 DATASETS  * FILE   NREC   LENGTH (MB)   RECORD NAMES
              1      18        3.17       500      610      700      900      950      970     1000      129      960     1100   
                                          VAR    BASINP    GEOM    SYMINP    ZMAT    AOBASIS   BASIS     P2S    ABASIS      S 
                                         1400     1410     1200     1210     1080     1600     1650     1700   
                                           T        V       H0       H01     AOSYM     SMH    MOLCAS    OPER   

              2       3        0.77       700     1000     2100   
                                         GEOM     BASIS     RHF  

 PROGRAMS   *        TOTAL  UCCSD(T)       RHF       INT
 CPU TIMES  *       352.68    348.85      1.93      1.79
 REAL TIME  *       365.66 SEC
 DISK USED  *         1.29 GB      
 SF USED    *       553.73 MB      
 GA USED    *         0.00 MB       (max)       0.00 MB       (current)
 **********************************************************************************************************************************

        UCCSD(T)        RHF-SCF 
   -268.13349435   -267.26541848
 **********************************************************************************************************************************
 Variable memory released
