
 Primary working directories    : /tmp/320938.351.gen4.q
 Secondary working directories  : /tmp/320938.351.gen4.q
 Wavefunction directory         : /home/vulcan/mel64643/wfu/
 Main file repository           : /tmp/320938.351.gen4.q/

 ARCHNAME  : Linux/x86_64
 FC        : /opt/intel/compilers_and_libraries_2016.1.150/linux/bin/intel64/ifort
 FCVERSION : 16.0.1
 BLASLIB   : -mkl
 id        : ccgc

 Nodes     nprocs
 n048         3
 Number of processes for MPI-2 version of Molpro:   nprocs(total)=    4   nprocs(compute)=    3   nprocs(helper)=    1
 ga_uses_ma=false, calling ma_init with nominal heap.
 GA-space will be limited to   8.0 MW (determined by -G option)

 Using customized tuning parameters: mindgm=10; mindgv=16; mindgc=4; mindgr=1; noblas=0; mincuda=1000; minvec=7
 default implementation of scratch files=sf  

 ***,Frequencies for min3
 memory,1000,m
 gthresh,energy=1.0d-10,orbital=1.0d-10,oneint=1.0d-16,twoint=1.0d-16,optgrad=1.0d-6,compress=1.0d-13
 geomtyp=xyz
 
  geometry = {
  12
  arbitrary comment
     C    1.776964391707    0.711398808326   -0.047331391796
     C    0.491811976407   -0.059992870174   -0.196493901896
     C    0.450332819107   -1.536294019674    0.100990929623
     O   -0.561264884528    0.727282224076    0.254433345583
     O   -1.837478301820    0.092323428907   -0.120403478177
     H    2.585783338449    0.210823447800   -0.611047101293
     H    1.661001126127    1.742422138555   -0.426778698508
     H    2.095484677723    0.774074354196    1.017798482845
     H   -0.504742776095   -1.982913624718   -0.219082725472
     H    1.282028803144   -2.047623209896   -0.416007413692
     H    0.561844281052   -1.718898672501    1.195721096950
     H   -1.987571623400    0.550589871873   -0.967050596478
  }
 
 basis=cc-pvdz
 {rhf;maxit,200}
 {uccsd(t);maxit,200}

 Variables initialized (661), CPU time= 0.00 sec
 Commands  initialized (458), CPU time= 0.01 sec, 486 directives.
 Default parameters read. Elapsed time= 0.07 sec

 Checking input...
 Passed
1


                                         ***  PROGRAM SYSTEM MOLPRO  ***
                         Copyright, University College Cardiff Consultants Limited, 2008

                                    Version 2010.1 linked May 16 2016 07:17:05


 **********************************************************************************************************************************
 LABEL *   Frequencies for min3                                                          
 Linux-4.4.3/n048(x86_64) 64 bit mpp version                                             DATE: 07-Mar-20          TIME: 03:01:20  
 **********************************************************************************************************************************

 SHA1:             9e8077add272b0f3cad6f7df79ec5211205f459d
 **********************************************************************************************************************************

 THRESHOLDS:

 ZERO    =  1.00D-12  ONEINT  =  1.00D-16  TWOINT  =  1.00D-16  PREFAC  =  1.00D-14  LOCALI  =  1.00D-09  EORDER  =  1.00D-04
 ENERGY  =  1.00D-10  ETEST   =  0.00D+00  EDENS   =  0.00D+00  THRDEDEF=  1.00D-06  GRADIENT=  1.00D-02  STEP    =  1.00D-03
 ORBITAL =  1.00D-10  CIVEC   =  1.00D-05  COEFF   =  1.00D-04  PRINTCI =  5.00D-02  PUNCHCI =  9.90D+01  OPTGRAD =  1.00D-06
 OPTENERG=  1.00D-06  OPTSTEP =  3.00D-04  THRGRAD =  1.00D-10  COMPRESS=  1.00D-13  VARMIN  =  1.00D-07  VARMAX  =  1.00D-03
 THRDOUB =  0.00D+00  THRDIV  =  1.00D-05  THRRED  =  1.00D-07  THRPSP  =  1.00D+00  THRDC   =  1.00D-10  THRCS   =  1.00D-10
 THRNRM  =  1.00D-08  THREQ   =  0.00D+00  THRDE   =  1.00D+00  THRREF  =  1.00D-05  SPARFAC =  1.00D+00  THRDLP  =  1.00D-07
 THRDIA  =  1.00D-10  THRDLS  =  1.00D-07  THRGPS  =  0.00D+00  THRKEX  =  0.00D+00  THRDIS  =  2.00D-01  THRVAR  =  1.00D-10
 THRLOC  =  1.00D-06  THRGAP  =  1.00D-06  THRLOCT = -1.00D+00  THRGAPT = -1.00D+00  THRORB  =  1.00D-06  THRMLTP =  0.00D+00
 THRCPQCI=  1.00D-10  KEXTA   =  0.00D+00  THRCOARS=  0.00D+00  SYMTOL  =  1.00D-06  GRADTOL =  1.00D-06  THROVL  =  1.00D-08
 THRORTH =  1.00D-08  GRID    =  1.00D-06  GRIDMAX =  1.00D-03  DTMAX   =  0.00D+00

 SETTING GEOMTYP        =    XYZ

 Variable memory set to 1000000000 words,  buffer space   230000 words

 SETTING BASIS          =    CC-PVDZ


 Recomputing integrals since basis changed


 Using spherical harmonics

 Library entry C      S cc-pVDZ              selected for orbital group  1
 Library entry C      P cc-pVDZ              selected for orbital group  1
 Library entry C      D cc-pVDZ              selected for orbital group  1
 Library entry O      S cc-pVDZ              selected for orbital group  2
 Library entry O      P cc-pVDZ              selected for orbital group  2
 Library entry O      D cc-pVDZ              selected for orbital group  2
 Library entry H      S cc-pVDZ              selected for orbital group  3
 Library entry H      P cc-pVDZ              selected for orbital group  3

1PROGRAM * SEWARD (Integral evaluation for generally contracted gaussian basis sets)     Author: Roland Lindh, 1990

 Geometry written to block  1 of record 700


 Point group  C1  



 ATOMIC COORDINATES

 NR  ATOM    CHARGE       X              Y              Z

   1  C       6.00    3.357976046    1.344348918   -0.089443368
   2  C       6.00    0.929389944   -0.113370094   -0.371319661
   3  C       6.00    0.851005696   -2.903174955    0.190845199
   4  O       8.00   -1.060636919    1.374364224    0.480809342
   5  O       8.00   -3.472330763    0.174465996   -0.227529599
   6  H       1.00    4.886422345    0.398398578   -1.154711675
   7  H       1.00    3.138837232    3.292700647   -0.806494859
   8  H       1.00    3.959892153    1.462788535    1.923360390
   9  H       1.00   -0.953825614   -3.747163693   -0.414006351
  10  H       1.00    2.422683331   -3.869447087   -0.786140081
  11  H       1.00    1.061731820   -3.248247739    2.259585403
  12  H       1.00   -3.755966035    1.040464069   -1.827460783

 Bond lengths in Bohr (Angstrom)

 1-2  2.846476668  1-6  2.089441720  1-7  2.087644395  1-8  2.104212420  2-3  2.846960586
     ( 1.506290578)     ( 1.105684938)     ( 1.104733834)     ( 1.113501256)     ( 1.506546657)

  2- 4  2.626724986   3- 9  2.082205188   3-10  2.087666797   3-11  2.107882055   4- 5  2.785276828
       ( 1.390002997)       ( 1.101855530)       ( 1.104745689)       ( 1.115443143)       ( 1.473905018)

  5-12  1.841244530
       ( 0.974344642)

 Bond angles

  1-2-3  120.38240730   1-2-4  108.91746540   2-1-6  109.98543138   2-1-7  110.75496976

  2- 1- 8  111.56813757   2- 3- 9  111.32770731   2- 3-10  109.90247636   2- 3-11  110.57673947

  2- 4- 5  109.23790054   3- 2- 4  118.04053704   4- 5-12   98.72829231   6- 1- 7  108.91669215

  6- 1- 8  107.69311889   7- 1- 8  107.82126582   9- 3-10  109.20826368   9- 3-11  107.78160758

 10- 3-11  107.95420656

 NUCLEAR CHARGE:                   41
 NUMBER OF PRIMITIVE AOS:         184
 NUMBER OF SYMMETRY AOS:          179
 NUMBER OF CONTRACTIONS:          105   ( 105A   )
 NUMBER OF CORE ORBITALS:           5   (   5A   )
 NUMBER OF VALENCE ORBITALS:       27   (  27A   )


 NUCLEAR REPULSION ENERGY  183.22797538


 Eigenvalues of metric

         1 0.345E-02 0.435E-02 0.105E-01 0.141E-01 0.182E-01 0.214E-01 0.331E-01 0.346E-01


 Contracted 2-electron integrals neglected if value below      1.0D-16
 AO integral compression algorithm  1   Integral accuracy      1.0D-16

     127.402 MB (compressed) written to integral file ( 93.4%)

     Node minimum: 41.681 MB, node maximum: 44.040 MB


 NUMBER OF SORTED TWO-ELECTRON INTEGRALS:    5164320.     BUFFER LENGTH:  32768
 NUMBER OF SEGMENTS:   1  SEGMENT LENGTH:    5164320      RECORD LENGTH: 524288

 Memory used in sort:       5.72 MW

 SORT1 READ    17075251. AND WROTE     5135909. INTEGRALS IN     15 RECORDS. CPU TIME:     0.21 SEC, REAL TIME:     0.26 SEC
 SORT2 READ    15396610. AND WROTE    15487395. INTEGRALS IN    477 RECORDS. CPU TIME:     0.07 SEC, REAL TIME:     0.10 SEC

 Node minimum:     5160610.  Node maximum:     5164320. integrals

 OPERATOR DM      FOR CENTER  0  COORDINATES:    0.000000    0.000000    0.000000


 **********************************************************************************************************************************
 DATASETS  * FILE   NREC   LENGTH (MB)   RECORD NAMES
              1      18        3.17       500      610      700      900      950      970     1000      129      960     1100   
                                          VAR    BASINP    GEOM    SYMINP    ZMAT    AOBASIS   BASIS     P2S    ABASIS      S 
                                         1400     1410     1200     1210     1080     1600     1650     1700   
                                           T        V       H0       H01     AOSYM     SMH    MOLCAS    OPER   

 PROGRAMS   *        TOTAL       INT
 CPU TIMES  *         0.98      0.90
 REAL TIME  *         1.40 SEC
 DISK USED  *       305.44 MB      
 GA USED    *         0.00 MB       (max)       0.00 MB       (current)
 **********************************************************************************************************************************

1PROGRAM * RHF-SCF (OPEN SHELL)       Authors: W. Meyer, H.-J. Werner


 NUMBER OF ELECTRONS:      21+   20-    SPACE SYMMETRY=1    SPIN SYMMETRY: Doublet 
 CONVERGENCE THRESHOLDS:    1.00E-10 (Density)    1.00E-11 (Energy)
 MAX. NUMBER OF ITERATIONS:      200
 INTERPOLATION TYPE:            DIIS
 INTERPOLATION STEPS:              2 (START)      1 (STEP)
 LEVEL SHIFTS:                 -0.30 (CLOSED)  0.00 (OPEN) 



 Orbital guess generated from atomic densities. Full valence occupancy:   32

 Molecular orbital dump at record        2100.2

 ITERATION    DDIFF          GRAD             ENERGY        2-EL.EN.            DIPOLE MOMENTS         DIIS
    1      0.000D+00      0.000D+00      -267.17839014    555.824594    0.56821    0.04893   -0.74776    0
    2      0.000D+00      0.617D-02      -267.24903530    555.751384    0.41435   -0.13166   -0.59916    1
    3      0.927D-02      0.214D-02      -267.26117844    555.667778    0.39391   -0.05971   -0.62636    2
    4      0.336D-02      0.911D-03      -267.26476470    555.820328    0.37960   -0.09983   -0.64289    3
    5      0.186D-02      0.363D-03      -267.26532799    555.791750    0.38217   -0.09333   -0.63589    4
    6      0.790D-03      0.110D-03      -267.26540310    555.777899    0.38045   -0.09312   -0.63861    5
    7      0.276D-03      0.506D-04      -267.26542281    555.774945    0.37976   -0.09287   -0.63810    6
    8      0.142D-03      0.270D-04      -267.26542874    555.772977    0.38003   -0.09298   -0.63831    7
    9      0.914D-04      0.114D-04      -267.26542964    555.773302    0.38022   -0.09293   -0.63806    8
   10      0.362D-04      0.496D-05      -267.26542979    555.773904    0.38048   -0.09295   -0.63813    9
   11      0.145D-04      0.195D-05      -267.26542982    555.773748    0.38053   -0.09294   -0.63813    9
   12      0.644D-05      0.665D-06      -267.26542982    555.773883    0.38055   -0.09294   -0.63813    9
   13      0.226D-05      0.224D-06      -267.26542982    555.773799    0.38055   -0.09294   -0.63813    9
   14      0.629D-06      0.750D-07      -267.26542982    555.773807    0.38055   -0.09294   -0.63813    9
   15      0.191D-06      0.296D-07      -267.26542982    555.773803    0.38055   -0.09294   -0.63813    9
   16      0.814D-07      0.142D-07      -267.26542982    555.773805    0.38055   -0.09295   -0.63813    9
   17      0.367D-07      0.738D-08      -267.26542982    555.773805    0.38055   -0.09295   -0.63813    9
   18      0.218D-07      0.337D-08      -267.26542982    555.773805    0.38055   -0.09295   -0.63813    9
   19      0.113D-07      0.131D-08      -267.26542982    555.773805    0.38055   -0.09295   -0.63813    9
   20      0.439D-08      0.555D-09      -267.26542982    555.773805    0.38055   -0.09295   -0.63813    9
   21      0.162D-08      0.280D-09      -267.26542982    555.773805    0.38055   -0.09295   -0.63813    9
   22      0.734D-09      0.158D-09      -267.26542982    555.773805    0.38055   -0.09295   -0.63813    9
   23      0.436D-09      0.779D-10      -267.26542982    555.773805    0.38055   -0.09295   -0.63813    9
   24      0.258D-09      0.309D-10      -267.26542982    555.773805    0.38055   -0.09295   -0.63813    9
   25      0.910D-10      0.126D-10      -267.26542982    555.773805    0.38055   -0.09295   -0.63813    0

 Final alpha occupancy:  21
 Final beta  occupancy:  20

 !RHF STATE 1.1 Energy               -267.265429819412
 Nuclear energy                       183.22797538
 One-electron energy                 -728.38030767
 Two-electron energy                  277.88690247
 Virial quotient                       -1.00155620
 !RHF STATE 1.1 Dipole moment           0.38055050    -0.09294511    -0.63812702
 Dipole moment /Debye                   0.96719954    -0.23622743    -1.62185088

 Orbital energies:

         1.1          2.1          3.1          4.1          5.1          6.1          7.1          8.1          9.1         10.1
    -20.630412   -20.628752   -11.279317   -11.237924   -11.232264    -1.470411    -1.240500    -1.023239    -0.945335    -0.768510

        11.1         12.1         13.1         14.1         15.1         16.1         17.1         18.1         19.1         20.1
     -0.704700    -0.643143    -0.626772    -0.588727    -0.544952    -0.543590    -0.538766    -0.517046    -0.492880    -0.469867

        21.1         22.1         23.1
     -0.352295     0.181313     0.183659


 **********************************************************************************************************************************
 DATASETS  * FILE   NREC   LENGTH (MB)   RECORD NAMES
              1      18        3.17       500      610      700      900      950      970     1000      129      960     1100   
                                          VAR    BASINP    GEOM    SYMINP    ZMAT    AOBASIS   BASIS     P2S    ABASIS      S 
                                         1400     1410     1200     1210     1080     1600     1650     1700   
                                           T        V       H0       H01     AOSYM     SMH    MOLCAS    OPER   

              2       3        0.77       700     1000     2100   
                                         GEOM     BASIS     RHF  

 PROGRAMS   *        TOTAL       RHF       INT
 CPU TIMES  *         2.09      1.11      0.90
 REAL TIME  *         2.65 SEC
 DISK USED  *       322.00 MB      
 SF USED    *         0.04 MB      
 GA USED    *         0.00 MB       (max)       0.00 MB       (current)
 **********************************************************************************************************************************


1PROGRAM * CCSD (Unrestricted open-shell coupled cluster)     Authors: C. Hampel, H.-J. Werner, 1991, M. Deegan, P.J. Knowles, 1992


 Convergence thresholds:  THRVAR = 1.00D-08  THRDEN = 1.00D-10

 CCSD(T)     terms to be evaluated (factor= 1.000)


 Number of core orbitals:           5 (   5 )
 Number of closed-shell orbitals:  15 (  15 )
 Number of active  orbitals:        1 (   1 )
 Number of external orbitals:      84 (  84 )

 Memory could be reduced to 24.91 Mwords without degradation in triples

 Number of N-1 electron functions:              31
 Number of N-2 electron functions:             465
 Number of singly external CSFs:              2635
 Number of doubly external CSFs:           2537250
 Total number of CSFs:                     2539885

 Molecular orbitals read from record     2100.2  Type=RHF/CANONICAL (state 1.1)

 Integral transformation finished. Total CPU:   1.23 sec, npass=  1  Memory used:  12.63 MW

 Starting RMP2 calculation

 ITER.      SQ.NORM     CORR.ENERGY   TOTAL ENERGY   ENERGY CHANGE        DEN1      VAR(S)    VAR(P)  DIIS     TIME
   1      1.24299608    -0.78634067  -268.05177049    -0.78634067    -0.00304909  0.20D-04  0.11D-02  1  1     1.66
   2      1.24563635    -0.78962888  -268.05505870    -0.00328821    -0.00000474  0.54D-06  0.19D-05  2  2     2.03
   3      1.24570186    -0.78967093  -268.05510075    -0.00004204    -0.00000003  0.16D-07  0.68D-08  3  3     2.43
   4      1.24570282    -0.78967093  -268.05510075    -0.00000000    -0.00000000  0.27D-09  0.38D-10  4  4     2.85
   5      1.24570290    -0.78967096  -268.05510078    -0.00000003    -0.00000000  0.25D-11  0.65D-12  5  5     3.30
   6      1.24570291    -0.78967097  -268.05510079    -0.00000001    -0.00000000  0.28D-13  0.87D-14  6  6     3.79
   7      1.24570291    -0.78967097  -268.05510079     0.00000000    -0.00000000  0.47D-15  0.12D-15  6  1     4.30
   8      1.24570291    -0.78967097  -268.05510079     0.00000000    -0.00000000  0.59D-17  0.13D-17  6  2     4.78

 Norm of t1 vector:      0.03894364      S-energy:    -0.00227242      T1 diagnostic:  0.00055055
 Norm of t2 vector:      0.49415211      P-energy:    -0.78739854
                                         Alpha-Beta:  -0.59338663
                                         Alpha-Alpha: -0.10093688
                                         Beta-Beta:   -0.09307503

 Spin contamination <S**2-Sz**2-Sz>     0.00104098
  Reference energy                   -267.265429819412
  RHF-RMP2 correlation energy          -0.789670967157
 !RHF-RMP2 energy                    -268.055100786569

 Starting UCCSD calculation

 ITER.      SQ.NORM     CORR.ENERGY   TOTAL ENERGY   ENERGY CHANGE        DEN1      VAR(S)    VAR(P)  DIIS     TIME
   1      1.26278187    -0.80902817  -268.07445799    -0.80902817    -0.02515029  0.38D-02  0.59D-02  1  1    12.39
   2      1.29154762    -0.83643313  -268.10186294    -0.02740495    -0.00200969  0.22D-03  0.66D-03  2  2    19.95
   3      1.30148090    -0.84092872  -268.10635854    -0.00449559    -0.00032434  0.19D-03  0.56D-04  3  3    27.55
   4      1.30638659    -0.84240458  -268.10783440    -0.00147586    -0.00007194  0.43D-04  0.14D-04  4  4    35.27
   5      1.30911036    -0.84279215  -268.10822197    -0.00038757    -0.00002358  0.19D-04  0.32D-05  5  5    42.96
   6      1.31104167    -0.84299602  -268.10842583    -0.00020387    -0.00000641  0.42D-05  0.12D-05  6  6    50.73
   7      1.31198447    -0.84305449  -268.10848431    -0.00005847    -0.00000206  0.14D-05  0.36D-06  6  2    58.54
   8      1.31242120    -0.84309685  -268.10852667    -0.00004236    -0.00000064  0.44D-06  0.11D-06  6  1    66.36
   9      1.31260357    -0.84310133  -268.10853115    -0.00000448    -0.00000022  0.15D-06  0.34D-07  6  4    74.08
  10      1.31266565    -0.84310423  -268.10853405    -0.00000289    -0.00000005  0.34D-07  0.94D-08  6  3    81.91
  11      1.31269460    -0.84310295  -268.10853277     0.00000127    -0.00000002  0.13D-07  0.28D-08  6  5    89.79
  12      1.31270475    -0.84310268  -268.10853250     0.00000027    -0.00000000  0.25D-08  0.94D-09  6  6    96.93
  13      1.31270358    -0.84310177  -268.10853159     0.00000091    -0.00000000  0.95D-09  0.28D-09  6  2   102.39
  14      1.31269841    -0.84310093  -268.10853075     0.00000084    -0.00000000  0.21D-09  0.67D-10  6  1   107.85
  15      1.31269437    -0.84310035  -268.10853017     0.00000058    -0.00000000  0.77D-10  0.19D-10  6  4   113.34
  16      1.31269121    -0.84309997  -268.10852979     0.00000038    -0.00000000  0.27D-10  0.62D-11  6  3   119.44
  17      1.31268904    -0.84309973  -268.10852955     0.00000024    -0.00000000  0.98D-11  0.23D-11  6  5   127.12
  18      1.31268814    -0.84309967  -268.10852949     0.00000006    -0.00000000  0.40D-11  0.85D-12  6  6   134.79
  19      1.31268755    -0.84309964  -268.10852946     0.00000003    -0.00000000  0.16D-11  0.36D-12  6  2   142.49
  20      1.31268723    -0.84309963  -268.10852945     0.00000001    -0.00000000  0.58D-12  0.13D-12  6  1   150.18
  21      1.31268707    -0.84309962  -268.10852944     0.00000001    -0.00000000  0.27D-12  0.56D-13  6  4   157.80
  22      1.31268695    -0.84309961  -268.10852943     0.00000001    -0.00000000  0.72D-13  0.21D-13  6  3   165.49
  23      1.31268690    -0.84309961  -268.10852943     0.00000000    -0.00000000  0.21D-13  0.61D-14  6  5   173.17
  24      1.31268689    -0.84309961  -268.10852943    -0.00000000    -0.00000000  0.66D-14  0.22D-14  6  6   180.86
  25      1.31268690    -0.84309961  -268.10852943    -0.00000000    -0.00000000  0.20D-14  0.51D-15  6  2   188.45
  26      1.31268690    -0.84309961  -268.10852943    -0.00000000    -0.00000000  0.75D-15  0.15D-15  6  1   193.93
  27      1.31268691    -0.84309961  -268.10852943    -0.00000000    -0.00000000  0.19D-15  0.61D-16  6  3   199.58
  28      1.31268692    -0.84309961  -268.10852943    -0.00000000    -0.00000000  0.29D-16  0.10D-16  6  4   205.06
  29      1.31268692    -0.84309961  -268.10852943    -0.00000000    -0.00000000  0.68D-17  0.28D-17  6  5   210.54
  30      1.31268692    -0.84309961  -268.10852943    -0.00000000    -0.00000000  0.15D-17  0.52D-18  6  6   215.98
  31      1.31268692    -0.84309961  -268.10852943    -0.00000000    -0.00000000  0.34D-18  0.10D-18  6  2   221.55

 Norm of t1 vector:      0.13860467      S-energy:    -0.00282178      T1 diagnostic:  0.01615545
                                                                       D1 diagnostic:  0.06281286
 Norm of t2 vector:      0.54173394      P-energy:    -0.84027783
                                         Alpha-Beta:  -0.66483489
                                         Alpha-Alpha: -0.09147274
                                         Beta-Beta:   -0.08397020

 Spin contamination <S**2-Sz**2-Sz>     0.00215935

 Memory could be reduced to 28.85 Mwords without degradation in triples
 

 RESULTS
 =======

  Reference energy                   -267.265429819412
  UCCSD singles energy                 -0.002821777994
  UCCSD pair energy                    -0.840277833076
  UCCSD correlation energy             -0.843099611069
  Triples (T) contribution             -0.024966418049
  Total correlation energy             -0.868066029118
 
  RHF-UCCSD energy                   -268.108529430481
  RHF-UCCSD[T] energy                -268.134830973373
  RHF-UCCSD-T energy                 -268.133074027289
 !RHF-UCCSD(T) energy                -268.133495848530

 Program statistics:

 Available memory in ccsd:               999997692
 Min. memory needed in ccsd:               7337057
 Max. memory used in ccsd:                10523002
 Max. memory used in cckext:              10867977 (31 integral passes)
 Max. memory used in cckint:              12633073 ( 1 integral passes)



 **********************************************************************************************************************************
 DATASETS  * FILE   NREC   LENGTH (MB)   RECORD NAMES
              1      18        3.17       500      610      700      900      950      970     1000      129      960     1100   
                                          VAR    BASINP    GEOM    SYMINP    ZMAT    AOBASIS   BASIS     P2S    ABASIS      S 
                                         1400     1410     1200     1210     1080     1600     1650     1700   
                                           T        V       H0       H01     AOSYM     SMH    MOLCAS    OPER   

              2       3        0.77       700     1000     2100   
                                         GEOM     BASIS     RHF  

 PROGRAMS   *        TOTAL  UCCSD(T)       RHF       INT
 CPU TIMES  *       269.68    267.59      1.11      0.90
 REAL TIME  *       284.11 SEC
 DISK USED  *         1.29 GB      
 SF USED    *       553.73 MB      
 GA USED    *         0.00 MB       (max)       0.00 MB       (current)
 **********************************************************************************************************************************

        UCCSD(T)        RHF-SCF 
   -268.13349585   -267.26542982
 **********************************************************************************************************************************
 Variable memory released
