
    -----------------------------------------------------------------------
          Psi4: An Open-Source Ab Initio Electronic Structure Package
                               Psi4 1.4a2.dev478 

                         Git: Rev {master} f722895 dirty


    R. M. Parrish, L. A. Burns, D. G. A. Smith, A. C. Simmonett,
    A. E. DePrince III, E. G. Hohenstein, U. Bozkaya, A. Yu. Sokolov,
    R. Di Remigio, R. M. Richard, J. F. Gonthier, A. M. James,
    H. R. McAlexander, A. Kumar, M. Saitow, X. Wang, B. P. Pritchard,
    P. Verma, H. F. Schaefer III, K. Patkowski, R. A. King, E. F. Valeev,
    F. A. Evangelista, J. M. Turney, T. D. Crawford, and C. D. Sherrill,
    J. Chem. Theory Comput. 13(7) pp 3185--3197 (2017).
    (doi: 10.1021/acs.jctc.7b00174)


                         Additional Contributions by
    P. Kraus, H. Kruse, M. H. Lechner, M. C. Schieber, R. A. Shaw,
    A. Alenaizan, R. Galvelis, Z. L. Glick, S. Lehtola, and J. P. Misiewicz

    -----------------------------------------------------------------------


    Psi4 started on: Friday, 05 June 2020 11:37AM

    Process ID: 32590
    Host:       n067
    PSIDATADIR: /opt/psi/4/master/share/psi4
    Memory:     500.0 MiB
    Threads:    4
    
  ==> Input File <==

--------------------------------------------------------------------------
set memory 40Gb

molecule {
    C   -1.169969463277   -0.774075714550   -0.000125580240
    H   -1.617202611977   -1.208993256496   -0.890316225563
    H   -1.617191706176   -1.211844430947    0.890039628490
    C   -1.170124557608    0.773779690316    0.000029102008
    H   -1.617509468873    1.211181960076    0.890227532764
    H   -1.617465628859    1.211310426206   -0.890127624309
    C    0.356686946441    0.920098361322    0.000073438190
    H    0.841029960800    1.891614409173    0.000148069573
    O    0.760957998590    0.000118852152   -1.017877667488
    C    0.356934995265   -0.920098138767   -0.000042026965
    H    0.841540516006   -1.891483247050   -0.000086671929
    O    0.760895748315   -0.000009455835    1.017933747638
}

set {
    e_convergence 10
    d_convergence 10
    freeze_core True
    basis_guess True
    cc_type conv
    maxiter 300
}

E = energy('mp2/heavy-aug-cc-pV(Q+d)Z')
psi4.print_out("\n========================OPTAVC-XTPL==========================\n\n")
psi4.print_out("MP2/QZ correlation energy {}\n".format(variable("MP2 CORRELATION ENERGY")))
psi4.print_out("SCF/QZ reference energy {}\n".format(variable("CURRENT REFERENCE ENERGY")))
psi4.print_out("\n\n=============================================================\n")

E = energy('mp2/heavy-aug-cc-pV(T+d)Z')
psi4.print_out("\n========================OPTAVC-XTPL==========================\n\n")
psi4.print_out("MP2/TZ correlation energy {}".format(variable("MP2 CORRELATION ENERGY")))
psi4.print_out("\n\n=============================================================\n")
--------------------------------------------------------------------------

Scratch directory: /tmp/

Scratch directory: /tmp/
    SCF Algorithm Type (re)set to DF.

*** tstart() called on n067
*** at Fri Jun  5 11:37:35 2020


  //>>>>>>>>>>>>>>>>>>>>>>>>>>>>>>>>>>>//
  //      Guess SCF, pcseg-0 Basis     //
  //<<<<<<<<<<<<<<<<<<<<<<<<<<<<<<<<<<<//

   => Loading Basis Set <=

    Name: PCSEG-0
    Role: ORBITAL
    Keyword: BASIS
    atoms 1, 4, 7, 10     entry C          line    71 file /opt/psi/4/master/share/psi4/basis/pcseg-0.gbs 
    atoms 2-3, 5-6, 8, 11 entry H          line    13 file /opt/psi/4/master/share/psi4/basis/pcseg-0.gbs 
    atoms 9, 12           entry O          line   103 file /opt/psi/4/master/share/psi4/basis/pcseg-0.gbs 


         ---------------------------------------------------------
                           SCF Castup computation                  
         ---------------------------------------------------------
                                   SCF
               by Justin Turney, Rob Parrish, Andy Simmonett
                          and Daniel G. A. Smith
                              RHF Reference
                        4 Threads,    500 MiB Core
         ---------------------------------------------------------

  ==> Geometry <==

    Molecular point group: c1
    Full point group: C1

    Geometry (in Angstrom), charge = 0, multiplicity = 1:

       Center              X                  Y                   Z               Mass       
    ------------   -----------------  -----------------  -----------------  -----------------
         C           -1.169969463277    -0.774075714550    -0.000125580240    12.000000000000
         H           -1.617202611977    -1.208993256496    -0.890316225563     1.007825032230
         H           -1.617191706176    -1.211844430947     0.890039628490     1.007825032230
         C           -1.170124557608     0.773779690316     0.000029102008    12.000000000000
         H           -1.617509468873     1.211181960076     0.890227532764     1.007825032230
         H           -1.617465628859     1.211310426206    -0.890127624309     1.007825032230
         C            0.356686946441     0.920098361322     0.000073438190    12.000000000000
         H            0.841029960800     1.891614409173     0.000148069573     1.007825032230
         O            0.760957998590     0.000118852152    -1.017877667488    15.994914619570
         C            0.356934995265    -0.920098138767    -0.000042026965    12.000000000000
         H            0.841540516006    -1.891483247050    -0.000086671929     1.007825032230
         O            0.760895748315    -0.000009455835     1.017933747638    15.994914619570

  Running in c1 symmetry.

  Rotational constants: A =      0.20032  B =      0.16407  C =      0.14759 [cm^-1]
  Rotational constants: A =   6005.29996  B =   4918.72130  C =   4424.56393 [MHz]
  Nuclear repulsion =  258.072496929670024

  Charge       = 0
  Multiplicity = 1
  Electrons    = 46
  Nalpha       = 23
  Nbeta        = 23

  ==> Algorithm <==

  SCF Algorithm Type is DF.
  DIIS enabled.
  MOM disabled.
  Fractional occupation disabled.
  Guess Type is SAD.
  Energy threshold   = 1.00e-10
  Density threshold  = 1.00e-10
  Integral threshold = 0.00e+00

  ==> Primary Basis <==

  Basis Set: PCSEG-0
    Blend: PCSEG-0
    Number of shells: 42
    Number of basis function: 66
    Number of Cartesian functions: 66
    Spherical Harmonics?: true
    Max angular momentum: 1

   => Loading Basis Set <=

    Name: (PCSEG-0 AUX)
    Role: JKFIT
    Keyword: DF_BASIS_SCF
    atoms 1, 4, 7, 10     entry C          line   198 file /opt/psi/4/master/share/psi4/basis/def2-universal-jkfit.gbs 
    atoms 2-3, 5-6, 8, 11 entry H          line    18 file /opt/psi/4/master/share/psi4/basis/def2-universal-jkfit.gbs 
    atoms 9, 12           entry O          line   318 file /opt/psi/4/master/share/psi4/basis/def2-universal-jkfit.gbs 

  ==> Integral Setup <==

  ==> DiskDFJK: Density-Fitted J/K Matrices <==

    J tasked:                  Yes
    K tasked:                  Yes
    wK tasked:                  No
    OpenMP threads:              4
    Integrals threads:           4
    Memory [MiB]:              375
    Algorithm:                Core
    Integral Cache:           NONE
    Schwarz Cutoff:          1E-12
    Fitting Condition:       1E-10

   => Auxiliary Basis Set <=

  Basis Set: (PCSEG-0 AUX)
    Blend: DEF2-UNIVERSAL-JKFIT
    Number of shells: 186
    Number of basis function: 562
    Number of Cartesian functions: 662
    Spherical Harmonics?: true
    Max angular momentum: 4

  Minimum eigenvalue in the overlap matrix is 1.2747599987E-03.
  Reciprocal condition number of the overlap matrix is 2.0982977374E-04.
    Using symmetric orthogonalization.

  ==> Pre-Iterations <==

  SCF Guess: Superposition of Atomic Densities via on-the-fly atomic UHF (no occupation information).

   -------------------------
    Irrep   Nso     Nmo    
   -------------------------
     A         66      66 
   -------------------------
    Total      66      66
   -------------------------

  ==> Iterations <==

                           Total Energy        Delta E     RMS |[F,P]|

   @DF-RHF iter SAD:  -303.78411344604865   -3.03784e+02   0.00000e+00 
   @DF-RHF iter   1:  -303.56517796283100    2.18935e-01   7.21010e-03 DIIS
   @DF-RHF iter   2:  -303.66409911378872   -9.89212e-02   3.86656e-03 DIIS
   @DF-RHF iter   3:  -303.68844843681876   -2.43493e-02   6.09841e-04 DIIS
   @DF-RHF iter   4:  -303.68958839466950   -1.13996e-03   1.89700e-04 DIIS
   @DF-RHF iter   5:  -303.68967681910544   -8.84244e-05   4.01153e-05 DIIS
   @DF-RHF iter   6:  -303.68968393927315   -7.12017e-06   8.09059e-06 DIIS
   @DF-RHF iter   7:  -303.68968431096135   -3.71688e-07   1.67015e-06 DIIS
   @DF-RHF iter   8:  -303.68968432404353   -1.30822e-08   5.23291e-07 DIIS
   @DF-RHF iter   9:  -303.68968432537571   -1.33218e-09   1.00054e-07 DIIS
   @DF-RHF iter  10:  -303.68968432543909   -6.33804e-11   1.69304e-08 DIIS
   @DF-RHF iter  11:  -303.68968432544074   -1.64846e-12   2.65641e-09 DIIS
   @DF-RHF iter  12:  -303.68968432544079   -5.68434e-14   9.60056e-10 DIIS
   @DF-RHF iter  13:  -303.68968432544079    0.00000e+00   2.60781e-10 DIIS
   @DF-RHF iter  14:  -303.68968432544102   -2.27374e-13   5.38500e-11 DIIS
  Energy and wave function converged.


  ==> Post-Iterations <==

    Orbital Energies [Eh]
    ---------------------

    Doubly Occupied:                                                      

       1A    -20.583851     2A    -20.583782     3A    -11.368401  
       4A    -11.368385     5A    -11.254657     6A    -11.254245  
       7A     -1.548734     8A     -1.317317     9A     -1.091298  
      10A     -1.011007    11A     -0.822292    12A     -0.788023  
      13A     -0.770568    14A     -0.684691    15A     -0.664456  
      16A     -0.661861    17A     -0.555063    18A     -0.534430  
      19A     -0.528218    20A     -0.525270    21A     -0.518404  
      22A     -0.467602    23A     -0.441368  

    Virtual:                                                              

      24A      0.203695    25A      0.232863    26A      0.236750  
      27A      0.242104    28A      0.254674    29A      0.267719  
      30A      0.316120    31A      0.351949    32A      0.354576  
      33A      0.388113    34A      0.408857    35A      0.474137  
      36A      0.575718    37A      0.796038    38A      0.799760  
      39A      0.821479    40A      0.924732    41A      0.933945  
      42A      0.944557    43A      0.951846    44A      1.004483  
      45A      1.005574    46A      1.033552    47A      1.061484  
      48A      1.071813    49A      1.136342    50A      1.149667  
      51A      1.171707    52A      1.173122    53A      1.210675  
      54A      1.239308    55A      1.422012    56A      1.454573  
      57A      1.484941    58A      1.525903    59A      1.692629  
      60A      1.710138    61A      1.929942    62A      1.952648  
      63A      2.144807    64A      2.303192    65A      2.379094  
      66A      2.449465  

    Final Occupation by Irrep:
              A 
    DOCC [    23 ]

  @DF-RHF Final Energy:  -303.68968432544102

   => Energetics <=

    Nuclear Repulsion Energy =            258.0724969296700237
    One-Electron Energy =                -924.8365169610284511
    Two-Electron Energy =                 363.0743357059174059
    Total Energy =                       -303.6896843254410214

Computation Completed

  //>>>>>>>>>>>>>>>>>>>>>>>>>>>>>>>>>>>//
  //                SCF                //
  //<<<<<<<<<<<<<<<<<<<<<<<<<<<<<<<<<<<//

   => Loading Basis Set <=

    Name: HEAVY-AUG-CC-PV(Q+D)Z
    Role: ORBITAL
    Keyword: BASIS
    atoms 1, 4, 7, 10     entry C          line   333 file /opt/psi/4/master/share/psi4/basis/heavy-aug-cc-pv_qpd_z.gbs 
    atoms 2-3, 5-6, 8, 11 entry H          line    86 file /opt/psi/4/master/share/psi4/basis/heavy-aug-cc-pv_qpd_z.gbs 
    atoms 9, 12           entry O          line   453 file /opt/psi/4/master/share/psi4/basis/heavy-aug-cc-pv_qpd_z.gbs 


         ---------------------------------------------------------
                                   SCF
               by Justin Turney, Rob Parrish, Andy Simmonett
                          and Daniel G. A. Smith
                              RHF Reference
                        4 Threads,    500 MiB Core
         ---------------------------------------------------------

  ==> Geometry <==

    Molecular point group: c1
    Full point group: C1

    Geometry (in Angstrom), charge = 0, multiplicity = 1:

       Center              X                  Y                   Z               Mass       
    ------------   -----------------  -----------------  -----------------  -----------------
         C           -1.169969463277    -0.774075714550    -0.000125580240    12.000000000000
         H           -1.617202611977    -1.208993256496    -0.890316225563     1.007825032230
         H           -1.617191706176    -1.211844430947     0.890039628490     1.007825032230
         C           -1.170124557608     0.773779690316     0.000029102008    12.000000000000
         H           -1.617509468873     1.211181960076     0.890227532764     1.007825032230
         H           -1.617465628859     1.211310426206    -0.890127624309     1.007825032230
         C            0.356686946441     0.920098361322     0.000073438190    12.000000000000
         H            0.841029960800     1.891614409173     0.000148069573     1.007825032230
         O            0.760957998590     0.000118852152    -1.017877667488    15.994914619570
         C            0.356934995265    -0.920098138767    -0.000042026965    12.000000000000
         H            0.841540516006    -1.891483247050    -0.000086671929     1.007825032230
         O            0.760895748315    -0.000009455835     1.017933747638    15.994914619570

  Running in c1 symmetry.

  Rotational constants: A =      0.20032  B =      0.16407  C =      0.14759 [cm^-1]
  Rotational constants: A =   6005.29996  B =   4918.72130  C =   4424.56393 [MHz]
  Nuclear repulsion =  258.072496929670024

  Charge       = 0
  Multiplicity = 1
  Electrons    = 46
  Nalpha       = 23
  Nbeta        = 23

  ==> Algorithm <==

  SCF Algorithm Type is DF.
  DIIS enabled.
  MOM disabled.
  Fractional occupation disabled.
  Guess Type is SAD.
  Energy threshold   = 1.00e-10
  Density threshold  = 1.00e-10
  Integral threshold = 0.00e+00

  ==> Primary Basis <==

  Basis Set: HEAVY-AUG-CC-PV(Q+D)Z
    Blend: HEAVY-AUG-CC-PV(Q+D)Z
    Number of shells: 180
    Number of basis function: 660
    Number of Cartesian functions: 840
    Spherical Harmonics?: true
    Max angular momentum: 4

   => Loading Basis Set <=

    Name: (HEAVY-AUG-CC-PV(Q+D)Z AUX)
    Role: JKFIT
    Keyword: DF_BASIS_SCF
    atoms 1, 4, 7, 10     entry C          line   214 file /opt/psi/4/master/share/psi4/basis/heavy-aug-cc-pvqz-jkfit.gbs 
    atoms 2-3, 5-6, 8, 11 entry H          line   116 file /opt/psi/4/master/share/psi4/basis/heavy-aug-cc-pvqz-jkfit.gbs 
    atoms 9, 12           entry O          line   354 file /opt/psi/4/master/share/psi4/basis/heavy-aug-cc-pvqz-jkfit.gbs 


  Computing basis projection from PCSEG-0 to HEAVY-AUG-CC-PV(Q+D)Z

  ==> Integral Setup <==

  ==> DiskDFJK: Density-Fitted J/K Matrices <==

    J tasked:                  Yes
    K tasked:                  Yes
    wK tasked:                  No
    OpenMP threads:              4
    Integrals threads:           4
    Memory [MiB]:              375
    Algorithm:                Disk
    Integral Cache:           NONE
    Schwarz Cutoff:          1E-12
    Fitting Condition:       1E-10

   => Auxiliary Basis Set <=

  Basis Set: (HEAVY-AUG-CC-PV(Q+D)Z AUX)
    Blend: HEAVY-AUG-CC-PVQZ-JKFIT
    Number of shells: 282
    Number of basis function: 1158
    Number of Cartesian functions: 1584
    Spherical Harmonics?: true
    Max angular momentum: 5

  Minimum eigenvalue in the overlap matrix is 1.0728433035E-06.
  Reciprocal condition number of the overlap matrix is 6.8677623344E-08.
    Using symmetric orthogonalization.

  ==> Pre-Iterations <==

  SCF Guess: Orbitals guess was supplied from a previous computation.

   -------------------------
    Irrep   Nso     Nmo    
   -------------------------
     A        660     660 
   -------------------------
    Total     660     660
   -------------------------

  ==> Iterations <==

                           Total Energy        Delta E     RMS |[F,P]|

   @DF-RHF iter   0:  -304.22024951058825   -3.04220e+02   4.49026e-03 
   @DF-RHF iter   1:  -304.73499096462626   -5.14741e-01   3.39669e-04 DIIS
   @DF-RHF iter   2:  -304.75114935497118   -1.61584e-02   1.55034e-04 DIIS
   @DF-RHF iter   3:  -304.75507010158930   -3.92075e-03   2.79038e-05 DIIS
   @DF-RHF iter   4:  -304.75534344999932   -2.73348e-04   7.95727e-06 DIIS
   @DF-RHF iter   5:  -304.75536466331897   -2.12133e-05   3.36838e-06 DIIS
   @DF-RHF iter   6:  -304.75536792141997   -3.25810e-06   8.32118e-07 DIIS
   @DF-RHF iter   7:  -304.75536820471166   -2.83292e-07   1.75387e-07 DIIS
   @DF-RHF iter   8:  -304.75536821854496   -1.38333e-08   4.58355e-08 DIIS
   @DF-RHF iter   9:  -304.75536821958320   -1.03825e-09   1.49166e-08 DIIS
   @DF-RHF iter  10:  -304.75536821967131   -8.81073e-11   3.66198e-09 DIIS
   @DF-RHF iter  11:  -304.75536821967876   -7.44649e-12   9.21694e-10 DIIS
   @DF-RHF iter  12:  -304.75536821968001   -1.25056e-12   2.68749e-10 DIIS
   @DF-RHF iter  13:  -304.75536821967978    2.27374e-13   6.00590e-11 DIIS
  Energy and wave function converged.


  ==> Post-Iterations <==

    Orbital Energies [Eh]
    ---------------------

    Doubly Occupied:                                                      

       1A    -20.564296     2A    -20.564256     3A    -11.346888  
       4A    -11.346855     5A    -11.235055     6A    -11.234478  
       7A     -1.500699     8A     -1.296007     9A     -1.066714  
      10A     -0.989814    11A     -0.810490    12A     -0.787536  
      13A     -0.749036    14A     -0.676511    15A     -0.657267  
      16A     -0.645558    17A     -0.537644    18A     -0.525398  
      19A     -0.519359    20A     -0.511659    21A     -0.508825  
      22A     -0.460243    23A     -0.431564  

    Virtual:                                                              

      24A      0.041674    25A      0.042971    26A      0.050514  
      27A      0.062641    28A      0.063961    29A      0.079817  
      30A      0.080060    31A      0.083462    32A      0.101514  
      33A      0.110294    34A      0.111770    35A      0.112236  
      36A      0.139396    37A      0.151949    38A      0.166518  
      39A      0.171525    40A      0.178367    41A      0.178846  
      42A      0.188735    43A      0.188984    44A      0.199220  
      45A      0.207538    46A      0.226247    47A      0.227055  
      48A      0.230182    49A      0.258097    50A      0.261563  
      51A      0.270726    52A      0.271389    53A      0.272948  
      54A      0.287085    55A      0.288248    56A      0.291683  
      57A      0.301309    58A      0.316712    59A      0.319862  
      60A      0.325847    61A      0.333523    62A      0.338445  
      63A      0.356638    64A      0.358179    65A      0.370096  
      66A      0.381347    67A      0.388263    68A      0.390874  
      69A      0.391795    70A      0.392700    71A      0.399311  
      72A      0.399396    73A      0.413676    74A      0.420625  
      75A      0.421941    76A      0.440167    77A      0.452951  
      78A      0.457650    79A      0.465869    80A      0.495278  
      81A      0.517075    82A      0.518916    83A      0.523911  
      84A      0.528059    85A      0.550620    86A      0.572865  
      87A      0.575683    88A      0.586248    89A      0.590222  
      90A      0.598527    91A      0.600993    92A      0.614805  
      93A      0.629759    94A      0.642217    95A      0.656502  
      96A      0.659706    97A      0.686961    98A      0.690291  
      99A      0.697291   100A      0.704685   101A      0.716278  
     102A      0.721695   103A      0.735150   104A      0.745014  
     105A      0.759932   106A      0.766568   107A      0.790067  
     108A      0.791748   109A      0.794857   110A      0.796335  
     111A      0.828622   112A      0.832187   113A      0.833912  
     114A      0.850101   115A      0.860651   116A      0.876256  
     117A      0.885293   118A      0.898097   119A      0.920657  
     120A      0.939367   121A      0.948150   122A      0.960272  
     123A      0.960951   124A      0.987418   125A      1.002492  
     126A      1.010046   127A      1.012690   128A      1.017687  
     129A      1.035013   130A      1.035274   131A      1.047547  
     132A      1.060649   133A      1.071506   134A      1.074840  
     135A      1.097989   136A      1.114350   137A      1.129111  
     138A      1.140872   139A      1.154375   140A      1.160400  
     141A      1.160928   142A      1.166869   143A      1.167462  
     144A      1.177463   145A      1.190963   146A      1.198674  
     147A      1.209829   148A      1.222512   149A      1.231054  
     150A      1.235280   151A      1.238339   152A      1.240263  
     153A      1.246811   154A      1.276521   155A      1.278386  
     156A      1.289103   157A      1.289674   158A      1.306561  
     159A      1.315571   160A      1.329702   161A      1.371287  
     162A      1.373851   163A      1.410064   164A      1.410896  
     165A      1.436443   166A      1.442547   167A      1.459625  
     168A      1.469900   169A      1.477109   170A      1.487326  
     171A      1.490861   172A      1.510064   173A      1.525824  
     174A      1.534678   175A      1.545144   176A      1.594941  
     177A      1.595380   178A      1.620299   179A      1.622928  
     180A      1.626116   181A      1.626668   182A      1.646527  
     183A      1.684375   184A      1.686489   185A      1.701345  
     186A      1.723958   187A      1.727755   188A      1.734299  
     189A      1.754700   190A      1.777159   191A      1.779289  
     192A      1.814185   193A      1.867164   194A      1.875390  
     195A      1.887305   196A      1.898838   197A      1.909186  
     198A      1.928079   199A      1.960760   200A      1.968588  
     201A      1.999031   202A      2.000496   203A      2.017430  
     204A      2.022268   205A      2.026853   206A      2.029940  
     207A      2.034908   208A      2.039042   209A      2.045031  
     210A      2.106320   211A      2.115926   212A      2.126294  
     213A      2.142636   214A      2.145924   215A      2.173587  
     216A      2.189801   217A      2.189994   218A      2.212314  
     219A      2.255238   220A      2.261710   221A      2.270526  
     222A      2.296137   223A      2.301609   224A      2.309475  
     225A      2.339416   226A      2.342198   227A      2.362104  
     228A      2.364501   229A      2.366090   230A      2.377193  
     231A      2.390968   232A      2.400935   233A      2.407269  
     234A      2.422963   235A      2.442976   236A      2.448310  
     237A      2.460455   238A      2.487594   239A      2.492681  
     240A      2.518807   241A      2.527742   242A      2.536959  
     243A      2.547438   244A      2.561401   245A      2.590140  
     246A      2.594495   247A      2.622154   248A      2.635010  
     249A      2.635827   250A      2.648906   251A      2.666439  
     252A      2.683534   253A      2.701603   254A      2.719495  
     255A      2.734179   256A      2.735273   257A      2.753969  
     258A      2.766139   259A      2.766812   260A      2.802258  
     261A      2.807489   262A      2.807847   263A      2.836030  
     264A      2.862006   265A      2.870415   266A      2.923917  
     267A      2.941413   268A      2.945704   269A      2.970842  
     270A      2.977473   271A      2.988909   272A      2.992997  
     273A      3.010144   274A      3.033625   275A      3.043776  
     276A      3.051811   277A      3.078465   278A      3.083579  
     279A      3.084594   280A      3.106180   281A      3.111690  
     282A      3.137700   283A      3.148569   284A      3.156429  
     285A      3.175217   286A      3.189892   287A      3.229512  
     288A      3.250018   289A      3.260146   290A      3.270357  
     291A      3.291596   292A      3.297644   293A      3.322603  
     294A      3.364386   295A      3.368764   296A      3.400923  
     297A      3.403961   298A      3.406843   299A      3.434849  
     300A      3.457087   301A      3.465046   302A      3.480995  
     303A      3.503673   304A      3.523691   305A      3.537667  
     306A      3.554207   307A      3.574899   308A      3.599695  
     309A      3.614226   310A      3.619440   311A      3.641334  
     312A      3.664456   313A      3.694316   314A      3.706964  
     315A      3.716771   316A      3.748997   317A      3.754286  
     318A      3.757639   319A      3.810218   320A      3.836633  
     321A      3.846564   322A      3.847202   323A      3.877112  
     324A      3.908921   325A      3.910927   326A      3.921600  
     327A      3.951999   328A      3.965524   329A      3.984732  
     330A      4.044097   331A      4.048686   332A      4.051375  
     333A      4.063412   334A      4.085980   335A      4.101401  
     336A      4.121240   337A      4.139568   338A      4.158075  
     339A      4.172844   340A      4.204163   341A      4.206313  
     342A      4.219900   343A      4.243359   344A      4.249593  
     345A      4.276801   346A      4.296319   347A      4.317467  
     348A      4.336993   349A      4.340506   350A      4.365172  
     351A      4.408791   352A      4.435572   353A      4.446919  
     354A      4.458071   355A      4.470207   356A      4.490668  
     357A      4.500529   358A      4.513344   359A      4.525616  
     360A      4.542331   361A      4.570990   362A      4.598148  
     363A      4.637711   364A      4.662251   365A      4.676498  
     366A      4.698572   367A      4.699638   368A      4.708040  
     369A      4.719938   370A      4.747531   371A      4.758722  
     372A      4.764258   373A      4.788903   374A      4.831291  
     375A      4.835473   376A      4.835965   377A      4.849168  
     378A      4.860624   379A      4.913792   380A      4.944945  
     381A      4.988966   382A      5.007645   383A      5.011452  
     384A      5.035618   385A      5.062727   386A      5.124535  
     387A      5.172103   388A      5.175581   389A      5.186266  
     390A      5.245409   391A      5.255465   392A      5.258059  
     393A      5.285304   394A      5.295660   395A      5.311401  
     396A      5.348172   397A      5.368187   398A      5.391748  
     399A      5.424026   400A      5.503511   401A      5.525499  
     402A      5.555337   403A      5.596585   404A      5.637606  
     405A      5.660132   406A      5.661460   407A      5.677804  
     408A      5.794400   409A      5.837788   410A      5.838937  
     411A      5.844819   412A      5.909812   413A      5.977127  
     414A      6.039154   415A      6.108180   416A      6.148317  
     417A      6.191776   418A      6.220627   419A      6.234526  
     420A      6.242346   421A      6.296929   422A      6.340388  
     423A      6.344993   424A      6.348909   425A      6.372207  
     426A      6.399556   427A      6.422624   428A      6.464113  
     429A      6.490872   430A      6.497412   431A      6.515062  
     432A      6.526418   433A      6.539933   434A      6.583461  
     435A      6.586982   436A      6.619286   437A      6.642420  
     438A      6.648674   439A      6.655649   440A      6.690681  
     441A      6.702608   442A      6.705597   443A      6.717519  
     444A      6.755024   445A      6.774856   446A      6.786610  
     447A      6.815841   448A      6.821807   449A      6.856866  
     450A      6.896955   451A      6.909042   452A      6.920435  
     453A      6.923497   454A      6.924386   455A      6.947548  
     456A      6.980391   457A      6.995676   458A      7.015110  
     459A      7.040939   460A      7.095851   461A      7.108131  
     462A      7.111545   463A      7.138086   464A      7.160579  
     465A      7.181251   466A      7.196045   467A      7.208386  
     468A      7.223251   469A      7.225085   470A      7.255265  
     471A      7.281017   472A      7.312382   473A      7.361299  
     474A      7.369946   475A      7.372127   476A      7.421296  
     477A      7.440549   478A      7.442522   479A      7.477749  
     480A      7.541419   481A      7.546885   482A      7.602357  
     483A      7.605503   484A      7.618302   485A      7.642476  
     486A      7.722178   487A      7.733109   488A      7.751636  
     489A      7.757136   490A      7.785086   491A      7.818512  
     492A      7.841088   493A      7.849339   494A      7.861060  
     495A      7.925058   496A      7.951786   497A      7.954350  
     498A      7.989411   499A      8.000137   500A      8.023483  
     501A      8.026602   502A      8.049953   503A      8.095072  
     504A      8.117866   505A      8.154627   506A      8.158017  
     507A      8.198827   508A      8.207277   509A      8.329267  
     510A      8.337557   511A      8.342516   512A      8.356107  
     513A      8.389889   514A      8.422569   515A      8.426868  
     516A      8.485244   517A      8.509004   518A      8.511126  
     519A      8.530705   520A      8.556362   521A      8.568105  
     522A      8.595150   523A      8.611701   524A      8.617589  
     525A      8.656367   526A      8.697259   527A      8.712472  
     528A      8.721221   529A      8.766920   530A      8.816560  
     531A      8.831780   532A      8.840700   533A      8.843949  
     534A      8.847448   535A      8.891348   536A      8.902313  
     537A      8.929505   538A      8.942887   539A      8.958644  
     540A      9.010300   541A      9.017317   542A      9.030064  
     543A      9.038678   544A      9.048960   545A      9.067546  
     546A      9.086430   547A      9.111383   548A      9.119097  
     549A      9.173829   550A      9.180647   551A      9.192049  
     552A      9.237181   553A      9.252922   554A      9.314351  
     555A      9.345424   556A      9.353816   557A      9.358156  
     558A      9.368899   559A      9.400593   560A      9.453745  
     561A      9.503857   562A      9.515901   563A      9.529385  
     564A      9.558103   565A      9.652143   566A      9.661585  
     567A      9.728370   568A      9.761528   569A      9.774697  
     570A      9.798131   571A      9.835832   572A      9.898979  
     573A      9.925405   574A      9.933217   575A      9.962405  
     576A     10.071782   577A     10.115827   578A     10.234459  
     579A     10.243821   580A     10.258027   581A     10.294486  
     582A     10.419753   583A     10.480795   584A     10.503355  
     585A     10.516240   586A     10.589399   587A     10.627684  
     588A     10.648899   589A     10.783146   590A     10.792268  
     591A     10.823066   592A     10.827209   593A     10.970769  
     594A     11.006004   595A     11.060031   596A     11.084055  
     597A     11.097488   598A     11.107787   599A     11.146831  
     600A     11.152390   601A     11.177101   602A     11.220006  
     603A     11.235618   604A     11.258541   605A     11.351426  
     606A     11.387439   607A     11.457527   608A     11.466083  
     609A     11.512778   610A     11.514138   611A     11.526823  
     612A     11.557595   613A     11.635306   614A     11.657904  
     615A     11.744228   616A     11.829159   617A     11.848423  
     618A     11.884414   619A     11.908734   620A     11.927864  
     621A     12.220231   622A     12.278292   623A     12.317109  
     624A     12.400070   625A     12.664445   626A     12.677476  
     627A     12.822184   628A     12.908959   629A     12.949885  
     630A     13.058202   631A     13.097477   632A     13.114337  
     633A     13.197079   634A     13.237603   635A     13.268073  
     636A     13.357892   637A     13.389906   638A     13.401599  
     639A     13.426241   640A     13.532523   641A     13.535684  
     642A     13.555014   643A     13.742392   644A     13.751014  
     645A     13.819529   646A     13.820869   647A     13.867452  
     648A     13.932565   649A     14.007235   650A     14.018840  
     651A     14.164469   652A     14.172678   653A     14.730301  
     654A     14.927218   655A     27.317974   656A     27.905732  
     657A     28.053823   658A     28.607240   659A     44.849546  
     660A     45.764650  

    Final Occupation by Irrep:
              A 
    DOCC [    23 ]

  @DF-RHF Final Energy:  -304.75536821967978

   => Energetics <=

    Nuclear Repulsion Energy =            258.0724969296700237
    One-Electron Energy =                -927.7234277437312358
    Two-Electron Energy =                 364.8955625943814312
    Total Energy =                       -304.7553682196797809

Computation Completed


Properties will be evaluated at   0.000000,   0.000000,   0.000000 [a0]

Properties computed using the SCF density matrix

  Nuclear Dipole Moment: [e a0]
     X:    -4.4802      Y:     0.0017      Z:    -0.0001

  Electronic Dipole Moment: [e a0]
     X:     3.7441      Y:    -0.0018      Z:    -0.0002

  Dipole Moment: [e a0]
     X:    -0.7360      Y:    -0.0001      Z:    -0.0003     Total:     0.7360

  Dipole Moment: [D]
     X:    -1.8708      Y:    -0.0004      Z:    -0.0008     Total:     1.8708


*** tstop() called on n067 at Fri Jun  5 11:38:14 2020
Module time:
	user time   =     139.35 seconds =       2.32 minutes
	system time =       6.72 seconds =       0.11 minutes
	total time  =         39 seconds =       0.65 minutes
Total time:
	user time   =     139.35 seconds =       2.32 minutes
	system time =       6.72 seconds =       0.11 minutes
	total time  =         39 seconds =       0.65 minutes

*** tstart() called on n067
*** at Fri Jun  5 11:38:14 2020


  //>>>>>>>>>>>>>>>>>>>>>>>>>>>>>>>>>>>//
  //               DFMP2               //
  //<<<<<<<<<<<<<<<<<<<<<<<<<<<<<<<<<<<//

   => Loading Basis Set <=

    Name: (HEAVY-AUG-CC-PV(Q+D)Z AUX)
    Role: RIFIT
    Keyword: DF_BASIS_MP2
    atoms 1, 4, 7, 10     entry C          line   180 file /opt/psi/4/master/share/psi4/basis/heavy-aug-cc-pvqz-ri.gbs 
    atoms 2-3, 5-6, 8, 11 entry H          line    44 file /opt/psi/4/master/share/psi4/basis/heavy-aug-cc-pvqz-ri.gbs 
    atoms 9, 12           entry O          line   328 file /opt/psi/4/master/share/psi4/basis/heavy-aug-cc-pvqz-ri.gbs 

	 --------------------------------------------------------
	                          DF-MP2                         
	      2nd-Order Density-Fitted Moller-Plesset Theory     
	              RMP2 Wavefunction,   4 Threads             
	                                                         
	        Rob Parrish, Justin Turney, Andy Simmonett,      
	           Ed Hohenstein, and C. David Sherrill          
	 --------------------------------------------------------

   => Auxiliary Basis Set <=

  Basis Set: (HEAVY-AUG-CC-PV(Q+D)Z AUX)
    Blend: HEAVY-AUG-CC-PVQZ-RI
    Number of shells: 306
    Number of basis function: 1338
    Number of Cartesian functions: 1842
    Spherical Harmonics?: true
    Max angular momentum: 5

	 --------------------------------------------------------
	                 NBF =   660, NAUX =  1338
	 --------------------------------------------------------
	   CLASS    FOCC     OCC    AOCC    AVIR     VIR    FVIR
	   PAIRS       6      23      17     637     637       0
	 --------------------------------------------------------

	-----------------------------------------------------------
	 ==================> DF-MP2 Energies <==================== 
	-----------------------------------------------------------
	 Reference Energy          =    -304.7553682196797809 [Eh]
	 Singles Energy            =      -0.0000000000000000 [Eh]
	 Same-Spin Energy          =      -0.2937702442391920 [Eh]
	 Opposite-Spin Energy      =      -0.9223728111391243 [Eh]
	 Correlation Energy        =      -1.2161430553783164 [Eh]
	 Total Energy              =    -305.9715112750581056 [Eh]
	-----------------------------------------------------------
	 ================> DF-SCS-MP2 Energies <================== 
	-----------------------------------------------------------
	 SCS Same-Spin Scale       =       0.3333333333333333 [-]
	 SCS Opposite-Spin Scale   =       1.2000000000000000 [-]
	 SCS Same-Spin Energy      =      -0.0979234147463973 [Eh]
	 SCS Opposite-Spin Energy  =      -1.1068473733669490 [Eh]
	 SCS Correlation Energy    =      -1.2047707881133465 [Eh]
	 SCS Total Energy          =    -305.9601390077931455 [Eh]
	-----------------------------------------------------------


*** tstop() called on n067 at Fri Jun  5 11:38:21 2020
Module time:
	user time   =      28.50 seconds =       0.47 minutes
	system time =       0.30 seconds =       0.00 minutes
	total time  =          7 seconds =       0.12 minutes
Total time:
	user time   =     167.85 seconds =       2.80 minutes
	system time =       7.02 seconds =       0.12 minutes
	total time  =         46 seconds =       0.77 minutes

========================OPTAVC-XTPL==========================

MP2/QZ correlation energy -1.2161430553783164
SCF/QZ reference energy -304.7553682196798


=============================================================

Scratch directory: /tmp/

Scratch directory: /tmp/
    SCF Algorithm Type (re)set to DF.

*** tstart() called on n067
*** at Fri Jun  5 11:38:21 2020


  //>>>>>>>>>>>>>>>>>>>>>>>>>>>>>>>>>>>//
  //      Guess SCF, pcseg-0 Basis     //
  //<<<<<<<<<<<<<<<<<<<<<<<<<<<<<<<<<<<//

   => Loading Basis Set <=

    Name: PCSEG-0
    Role: ORBITAL
    Keyword: BASIS
    atoms 1, 4, 7, 10     entry C          line    71 file /opt/psi/4/master/share/psi4/basis/pcseg-0.gbs 
    atoms 2-3, 5-6, 8, 11 entry H          line    13 file /opt/psi/4/master/share/psi4/basis/pcseg-0.gbs 
    atoms 9, 12           entry O          line   103 file /opt/psi/4/master/share/psi4/basis/pcseg-0.gbs 


         ---------------------------------------------------------
                           SCF Castup computation                  
         ---------------------------------------------------------
                                   SCF
               by Justin Turney, Rob Parrish, Andy Simmonett
                          and Daniel G. A. Smith
                              RHF Reference
                        4 Threads,    500 MiB Core
         ---------------------------------------------------------

  ==> Geometry <==

    Molecular point group: c1
    Full point group: C1

    Geometry (in Angstrom), charge = 0, multiplicity = 1:

       Center              X                  Y                   Z               Mass       
    ------------   -----------------  -----------------  -----------------  -----------------
         C           -1.169969463277    -0.774075714550    -0.000125580240    12.000000000000
         H           -1.617202611977    -1.208993256496    -0.890316225563     1.007825032230
         H           -1.617191706176    -1.211844430947     0.890039628490     1.007825032230
         C           -1.170124557608     0.773779690316     0.000029102008    12.000000000000
         H           -1.617509468873     1.211181960076     0.890227532764     1.007825032230
         H           -1.617465628859     1.211310426206    -0.890127624309     1.007825032230
         C            0.356686946441     0.920098361322     0.000073438190    12.000000000000
         H            0.841029960800     1.891614409173     0.000148069573     1.007825032230
         O            0.760957998590     0.000118852152    -1.017877667488    15.994914619570
         C            0.356934995265    -0.920098138767    -0.000042026965    12.000000000000
         H            0.841540516006    -1.891483247050    -0.000086671929     1.007825032230
         O            0.760895748315    -0.000009455835     1.017933747638    15.994914619570

  Running in c1 symmetry.

  Rotational constants: A =      0.20032  B =      0.16407  C =      0.14759 [cm^-1]
  Rotational constants: A =   6005.29996  B =   4918.72130  C =   4424.56393 [MHz]
  Nuclear repulsion =  258.072496929670024

  Charge       = 0
  Multiplicity = 1
  Electrons    = 46
  Nalpha       = 23
  Nbeta        = 23

  ==> Algorithm <==

  SCF Algorithm Type is DF.
  DIIS enabled.
  MOM disabled.
  Fractional occupation disabled.
  Guess Type is SAD.
  Energy threshold   = 1.00e-10
  Density threshold  = 1.00e-10
  Integral threshold = 0.00e+00

  ==> Primary Basis <==

  Basis Set: PCSEG-0
    Blend: PCSEG-0
    Number of shells: 42
    Number of basis function: 66
    Number of Cartesian functions: 66
    Spherical Harmonics?: true
    Max angular momentum: 1

   => Loading Basis Set <=

    Name: (PCSEG-0 AUX)
    Role: JKFIT
    Keyword: DF_BASIS_SCF
    atoms 1, 4, 7, 10     entry C          line   198 file /opt/psi/4/master/share/psi4/basis/def2-universal-jkfit.gbs 
    atoms 2-3, 5-6, 8, 11 entry H          line    18 file /opt/psi/4/master/share/psi4/basis/def2-universal-jkfit.gbs 
    atoms 9, 12           entry O          line   318 file /opt/psi/4/master/share/psi4/basis/def2-universal-jkfit.gbs 

  ==> Integral Setup <==

  ==> DiskDFJK: Density-Fitted J/K Matrices <==

    J tasked:                  Yes
    K tasked:                  Yes
    wK tasked:                  No
    OpenMP threads:              4
    Integrals threads:           4
    Memory [MiB]:              375
    Algorithm:                Core
    Integral Cache:           NONE
    Schwarz Cutoff:          1E-12
    Fitting Condition:       1E-10

   => Auxiliary Basis Set <=

  Basis Set: (PCSEG-0 AUX)
    Blend: DEF2-UNIVERSAL-JKFIT
    Number of shells: 186
    Number of basis function: 562
    Number of Cartesian functions: 662
    Spherical Harmonics?: true
    Max angular momentum: 4

  Minimum eigenvalue in the overlap matrix is 1.2747599987E-03.
  Reciprocal condition number of the overlap matrix is 2.0982977374E-04.
    Using symmetric orthogonalization.

  ==> Pre-Iterations <==

  SCF Guess: Superposition of Atomic Densities via on-the-fly atomic UHF (no occupation information).

   -------------------------
    Irrep   Nso     Nmo    
   -------------------------
     A         66      66 
   -------------------------
    Total      66      66
   -------------------------

  ==> Iterations <==

                           Total Energy        Delta E     RMS |[F,P]|

   @DF-RHF iter SAD:  -303.78411344638187   -3.03784e+02   0.00000e+00 
   @DF-RHF iter   1:  -303.56517796314296    2.18935e-01   7.21010e-03 DIIS
   @DF-RHF iter   2:  -303.66409911410278   -9.89212e-02   3.86656e-03 DIIS
   @DF-RHF iter   3:  -303.68844843713509   -2.43493e-02   6.09841e-04 DIIS
   @DF-RHF iter   4:  -303.68958839498555   -1.13996e-03   1.89700e-04 DIIS
   @DF-RHF iter   5:  -303.68967681942149   -8.84244e-05   4.01153e-05 DIIS
   @DF-RHF iter   6:  -303.68968393958971   -7.12017e-06   8.09059e-06 DIIS
   @DF-RHF iter   7:  -303.68968431127769   -3.71688e-07   1.67015e-06 DIIS
   @DF-RHF iter   8:  -303.68968432435986   -1.30822e-08   5.23291e-07 DIIS
   @DF-RHF iter   9:  -303.68968432569187   -1.33201e-09   1.00054e-07 DIIS
   @DF-RHF iter  10:  -303.68968432575525   -6.33804e-11   1.69304e-08 DIIS
   @DF-RHF iter  11:  -303.68968432575730   -2.04636e-12   2.65641e-09 DIIS
   @DF-RHF iter  12:  -303.68968432575747   -1.70530e-13   9.60056e-10 DIIS
   @DF-RHF iter  13:  -303.68968432575707    3.97904e-13   2.60782e-10 DIIS
   @DF-RHF iter  14:  -303.68968432575724   -1.70530e-13   5.38504e-11 DIIS
  Energy and wave function converged.


  ==> Post-Iterations <==

    Orbital Energies [Eh]
    ---------------------

    Doubly Occupied:                                                      

       1A    -20.583851     2A    -20.583782     3A    -11.368401  
       4A    -11.368385     5A    -11.254657     6A    -11.254245  
       7A     -1.548734     8A     -1.317317     9A     -1.091298  
      10A     -1.011007    11A     -0.822292    12A     -0.788023  
      13A     -0.770568    14A     -0.684691    15A     -0.664456  
      16A     -0.661861    17A     -0.555063    18A     -0.534430  
      19A     -0.528218    20A     -0.525270    21A     -0.518404  
      22A     -0.467602    23A     -0.441368  

    Virtual:                                                              

      24A      0.203695    25A      0.232863    26A      0.236750  
      27A      0.242104    28A      0.254674    29A      0.267719  
      30A      0.316120    31A      0.351949    32A      0.354576  
      33A      0.388113    34A      0.408857    35A      0.474137  
      36A      0.575718    37A      0.796038    38A      0.799760  
      39A      0.821479    40A      0.924732    41A      0.933945  
      42A      0.944557    43A      0.951846    44A      1.004483  
      45A      1.005574    46A      1.033552    47A      1.061484  
      48A      1.071813    49A      1.136342    50A      1.149667  
      51A      1.171707    52A      1.173122    53A      1.210675  
      54A      1.239308    55A      1.422012    56A      1.454573  
      57A      1.484941    58A      1.525903    59A      1.692629  
      60A      1.710138    61A      1.929942    62A      1.952648  
      63A      2.144807    64A      2.303192    65A      2.379094  
      66A      2.449465  

    Final Occupation by Irrep:
              A 
    DOCC [    23 ]

  @DF-RHF Final Energy:  -303.68968432575724

   => Energetics <=

    Nuclear Repulsion Energy =            258.0724969296700237
    One-Electron Energy =                -924.8365169610544854
    Two-Electron Energy =                 363.0743357056272202
    Total Energy =                       -303.6896843257572414

Computation Completed

  //>>>>>>>>>>>>>>>>>>>>>>>>>>>>>>>>>>>//
  //                SCF                //
  //<<<<<<<<<<<<<<<<<<<<<<<<<<<<<<<<<<<//

   => Loading Basis Set <=

    Name: HEAVY-AUG-CC-PV(T+D)Z
    Role: ORBITAL
    Keyword: BASIS
    atoms 1, 4, 7, 10     entry C          line   273 file /opt/psi/4/master/share/psi4/basis/heavy-aug-cc-pv_tpd_z.gbs 
    atoms 2-3, 5-6, 8, 11 entry H          line    86 file /opt/psi/4/master/share/psi4/basis/heavy-aug-cc-pv_tpd_z.gbs 
    atoms 9, 12           entry O          line   365 file /opt/psi/4/master/share/psi4/basis/heavy-aug-cc-pv_tpd_z.gbs 


         ---------------------------------------------------------
                                   SCF
               by Justin Turney, Rob Parrish, Andy Simmonett
                          and Daniel G. A. Smith
                              RHF Reference
                        4 Threads,    500 MiB Core
         ---------------------------------------------------------

  ==> Geometry <==

    Molecular point group: c1
    Full point group: C1

    Geometry (in Angstrom), charge = 0, multiplicity = 1:

       Center              X                  Y                   Z               Mass       
    ------------   -----------------  -----------------  -----------------  -----------------
         C           -1.169969463277    -0.774075714550    -0.000125580240    12.000000000000
         H           -1.617202611977    -1.208993256496    -0.890316225563     1.007825032230
         H           -1.617191706176    -1.211844430947     0.890039628490     1.007825032230
         C           -1.170124557608     0.773779690316     0.000029102008    12.000000000000
         H           -1.617509468873     1.211181960076     0.890227532764     1.007825032230
         H           -1.617465628859     1.211310426206    -0.890127624309     1.007825032230
         C            0.356686946441     0.920098361322     0.000073438190    12.000000000000
         H            0.841029960800     1.891614409173     0.000148069573     1.007825032230
         O            0.760957998590     0.000118852152    -1.017877667488    15.994914619570
         C            0.356934995265    -0.920098138767    -0.000042026965    12.000000000000
         H            0.841540516006    -1.891483247050    -0.000086671929     1.007825032230
         O            0.760895748315    -0.000009455835     1.017933747638    15.994914619570

  Running in c1 symmetry.

  Rotational constants: A =      0.20032  B =      0.16407  C =      0.14759 [cm^-1]
  Rotational constants: A =   6005.29996  B =   4918.72130  C =   4424.56393 [MHz]
  Nuclear repulsion =  258.072496929670024

  Charge       = 0
  Multiplicity = 1
  Electrons    = 46
  Nalpha       = 23
  Nbeta        = 23

  ==> Algorithm <==

  SCF Algorithm Type is DF.
  DIIS enabled.
  MOM disabled.
  Fractional occupation disabled.
  Guess Type is SAD.
  Energy threshold   = 1.00e-10
  Density threshold  = 1.00e-10
  Integral threshold = 0.00e+00

  ==> Primary Basis <==

  Basis Set: HEAVY-AUG-CC-PV(T+D)Z
    Blend: HEAVY-AUG-CC-PV(T+D)Z
    Number of shells: 120
    Number of basis function: 360
    Number of Cartesian functions: 420
    Spherical Harmonics?: true
    Max angular momentum: 3

   => Loading Basis Set <=

    Name: (HEAVY-AUG-CC-PV(T+D)Z AUX)
    Role: JKFIT
    Keyword: DF_BASIS_SCF
    atoms 1, 4, 7, 10     entry C          line   200 file /opt/psi/4/master/share/psi4/basis/heavy-aug-cc-pvtz-jkfit.gbs 
    atoms 2-3, 5-6, 8, 11 entry H          line   116 file /opt/psi/4/master/share/psi4/basis/heavy-aug-cc-pvtz-jkfit.gbs 
    atoms 9, 12           entry O          line   324 file /opt/psi/4/master/share/psi4/basis/heavy-aug-cc-pvtz-jkfit.gbs 


  Computing basis projection from PCSEG-0 to HEAVY-AUG-CC-PV(T+D)Z

  ==> Integral Setup <==

  ==> DiskDFJK: Density-Fitted J/K Matrices <==

    J tasked:                  Yes
    K tasked:                  Yes
    wK tasked:                  No
    OpenMP threads:              4
    Integrals threads:           4
    Memory [MiB]:              375
    Algorithm:                Disk
    Integral Cache:           NONE
    Schwarz Cutoff:          1E-12
    Fitting Condition:       1E-10

   => Auxiliary Basis Set <=

  Basis Set: (HEAVY-AUG-CC-PV(T+D)Z AUX)
    Blend: HEAVY-AUG-CC-PVTZ-JKFIT
    Number of shells: 240
    Number of basis function: 804
    Number of Cartesian functions: 996
    Spherical Harmonics?: true
    Max angular momentum: 4

  Minimum eigenvalue in the overlap matrix is 5.4622805257E-06.
  Reciprocal condition number of the overlap matrix is 3.9858485020E-07.
    Using symmetric orthogonalization.

  ==> Pre-Iterations <==

  SCF Guess: Orbitals guess was supplied from a previous computation.

   -------------------------
    Irrep   Nso     Nmo    
   -------------------------
     A        360     360 
   -------------------------
    Total     360     360
   -------------------------

  ==> Iterations <==

                           Total Energy        Delta E     RMS |[F,P]|

   @DF-RHF iter   0:  -304.36014347637160   -3.04360e+02   4.19549e-03 
   @DF-RHF iter   1:  -304.71757908465736   -3.57436e-01   5.78113e-04 DIIS
   @DF-RHF iter   2:  -304.73286774735095   -1.52887e-02   2.73858e-04 DIIS
   @DF-RHF iter   3:  -304.73659821889606   -3.73047e-03   4.82221e-05 DIIS
   @DF-RHF iter   4:  -304.73685833790796   -2.60119e-04   1.47368e-05 DIIS
   @DF-RHF iter   5:  -304.73687804046517   -1.97026e-05   6.03049e-06 DIIS
   @DF-RHF iter   6:  -304.73688147505851   -3.43459e-06   1.40514e-06 DIIS
   @DF-RHF iter   7:  -304.73688172019638   -2.45138e-07   3.05110e-07 DIIS
   @DF-RHF iter   8:  -304.73688173323990   -1.30435e-08   8.03868e-08 DIIS
   @DF-RHF iter   9:  -304.73688173414155   -9.01650e-10   2.56527e-08 DIIS
   @DF-RHF iter  10:  -304.73688173422676   -8.52083e-11   6.19731e-09 DIIS
   @DF-RHF iter  11:  -304.73688173423363   -6.87805e-12   1.58678e-09 DIIS
   @DF-RHF iter  12:  -304.73688173423403   -3.97904e-13   4.58310e-10 DIIS
   @DF-RHF iter  13:  -304.73688173423329    7.38964e-13   1.06754e-10 DIIS
   @DF-RHF iter  14:  -304.73688173423375   -4.54747e-13   5.26401e-11 DIIS
  Energy and wave function converged.


  ==> Post-Iterations <==

    Orbital Energies [Eh]
    ---------------------

    Doubly Occupied:                                                      

       1A    -20.567252     2A    -20.567213     3A    -11.347998  
       4A    -11.347966     5A    -11.236134     6A    -11.235559  
       7A     -1.501514     8A     -1.296807     9A     -1.066960  
      10A     -0.990099    11A     -0.810584    12A     -0.787691  
      13A     -0.748995    14A     -0.676411    15A     -0.657292  
      16A     -0.645410    17A     -0.537572    18A     -0.525245  
      19A     -0.519227    20A     -0.511582    21A     -0.508625  
      22A     -0.459979    23A     -0.431364  

    Virtual:                                                              

      24A      0.050449    25A      0.051300    26A      0.059468  
      27A      0.072114    28A      0.073459    29A      0.092420  
      30A      0.093434    31A      0.096769    32A      0.116628  
      33A      0.126408    34A      0.127465    35A      0.130115  
      36A      0.162132    37A      0.176390    38A      0.195500  
      39A      0.204209    40A      0.206628    41A      0.214141  
      42A      0.220951    43A      0.228191    44A      0.233690  
      45A      0.249478    46A      0.268183    47A      0.268941  
      48A      0.276978    49A      0.295942    50A      0.302237  
      51A      0.315586    52A      0.332110    53A      0.336066  
      54A      0.342738    55A      0.348393    56A      0.356992  
      57A      0.357252    58A      0.362786    59A      0.376045  
      60A      0.398587    61A      0.404071    62A      0.412785  
      63A      0.421502    64A      0.433692    65A      0.447026  
      66A      0.459437    67A      0.469182    68A      0.486606  
      69A      0.493133    70A      0.508565    71A      0.512547  
      72A      0.516717    73A      0.520739    74A      0.527737  
      75A      0.529252    76A      0.543525    77A      0.546064  
      78A      0.580576    79A      0.595838    80A      0.608243  
      81A      0.612098    82A      0.624814    83A      0.654891  
      84A      0.657307    85A      0.672092    86A      0.722730  
      87A      0.737471    88A      0.748485    89A      0.754195  
      90A      0.771615    91A      0.781630    92A      0.793714  
      93A      0.798287    94A      0.817384    95A      0.820119  
      96A      0.830137    97A      0.843420    98A      0.878384  
      99A      0.892184   100A      0.930722   101A      0.930921  
     102A      0.940204   103A      0.946360   104A      0.969921  
     105A      0.988466   106A      1.000215   107A      1.031654  
     108A      1.037930   109A      1.039140   110A      1.061939  
     111A      1.080489   112A      1.096462   113A      1.115975  
     114A      1.123208   115A      1.139024   116A      1.161573  
     117A      1.189213   118A      1.225351   119A      1.249070  
     120A      1.252475   121A      1.262829   122A      1.283243  
     123A      1.323034   124A      1.330802   125A      1.339092  
     126A      1.353472   127A      1.375083   128A      1.382748  
     129A      1.398492   130A      1.404202   131A      1.412784  
     132A      1.448313   133A      1.448553   134A      1.460328  
     135A      1.482076   136A      1.498129   137A      1.506649  
     138A      1.527433   139A      1.547168   140A      1.559639  
     141A      1.583300   142A      1.586154   143A      1.589041  
     144A      1.589987   145A      1.601679   146A      1.656063  
     147A      1.660740   148A      1.670557   149A      1.676478  
     150A      1.684946   151A      1.700126   152A      1.708039  
     153A      1.715656   154A      1.732069   155A      1.736716  
     156A      1.750105   157A      1.752717   158A      1.791986  
     159A      1.802772   160A      1.808668   161A      1.824253  
     162A      1.903840   163A      1.905588   164A      1.931572  
     165A      1.945084   166A      1.948959   167A      1.985502  
     168A      1.993761   169A      2.003836   170A      2.007375  
     171A      2.028485   172A      2.051168   173A      2.055140  
     174A      2.060791   175A      2.150955   176A      2.153439  
     177A      2.214151   178A      2.251751   179A      2.301673  
     180A      2.334289   181A      2.393127   182A      2.402991  
     183A      2.424070   184A      2.441717   185A      2.452686  
     186A      2.480789   187A      2.508557   188A      2.511697  
     189A      2.544958   190A      2.582271   191A      2.631966  
     192A      2.647294   193A      2.682311   194A      2.693504  
     195A      2.725296   196A      2.771040   197A      2.799396  
     198A      2.882312   199A      2.882969   200A      2.895323  
     201A      2.914366   202A      2.920830   203A      2.958401  
     204A      2.966081   205A      2.969630   206A      3.081353  
     207A      3.099682   208A      3.119435   209A      3.132177  
     210A      3.185636   211A      3.188785   212A      3.211865  
     213A      3.227580   214A      3.243609   215A      3.267095  
     216A      3.312194   217A      3.339161   218A      3.412641  
     219A      3.416063   220A      3.418038   221A      3.440039  
     222A      3.442720   223A      3.480599   224A      3.486482  
     225A      3.504139   226A      3.524071   227A      3.539317  
     228A      3.607302   229A      3.629314   230A      3.639692  
     231A      3.671093   232A      3.686035   233A      3.700590  
     234A      3.710742   235A      3.730032   236A      3.735998  
     237A      3.752356   238A      3.821127   239A      3.837550  
     240A      3.844550   241A      3.867609   242A      3.885640  
     243A      3.933591   244A      3.949830   245A      3.966218  
     246A      3.966471   247A      3.969932   248A      4.005036  
     249A      4.025455   250A      4.049925   251A      4.056493  
     252A      4.080455   253A      4.108162   254A      4.114415  
     255A      4.148539   256A      4.168119   257A      4.176287  
     258A      4.185377   259A      4.191728   260A      4.214812  
     261A      4.244627   262A      4.253359   263A      4.260117  
     264A      4.268821   265A      4.274103   266A      4.318473  
     267A      4.345974   268A      4.367060   269A      4.429781  
     270A      4.467179   271A      4.484734   272A      4.486253  
     273A      4.500112   274A      4.516378   275A      4.532226  
     276A      4.555106   277A      4.584832   278A      4.639597  
     279A      4.691267   280A      4.694254   281A      4.703858  
     282A      4.708463   283A      4.735211   284A      4.745256  
     285A      4.758857   286A      4.809135   287A      4.821243  
     288A      4.821875   289A      4.840784   290A      4.889270  
     291A      4.908472   292A      4.959394   293A      4.966340  
     294A      4.968457   295A      5.097614   296A      5.120161  
     297A      5.125574   298A      5.194430   299A      5.200309  
     300A      5.241519   301A      5.273769   302A      5.290242  
     303A      5.398341   304A      5.424707   305A      5.437335  
     306A      5.467131   307A      5.477169   308A      5.584365  
     309A      5.585045   310A      5.606866   311A      5.656107  
     312A      5.704915   313A      5.711489   314A      5.730565  
     315A      5.861589   316A      5.868032   317A      5.900832  
     318A      5.937807   319A      6.061798   320A      6.130224  
     321A      6.153234   322A      6.207958   323A      6.262109  
     324A      6.289072   325A      6.301779   326A      6.361175  
     327A      6.385976   328A      6.498046   329A      6.563576  
     330A      6.901464   331A      6.906179   332A      6.955172  
     333A      6.970922   334A      6.997718   335A      7.032949  
     336A      7.111290   337A      7.141340   338A      7.179642  
     339A      7.207010   340A      7.245690   341A      7.254751  
     342A      7.404402   343A      7.507584   344A      7.599752  
     345A      7.615128   346A      7.659980   347A      7.755721  
     348A      7.811146   349A      7.825175   350A      7.924552  
     351A      8.059694   352A      8.210667   353A      8.213612  
     354A      8.233733   355A     14.278812   356A     15.473149  
     357A     15.713063   358A     15.957220   359A     17.527123  
     360A     18.823660  

    Final Occupation by Irrep:
              A 
    DOCC [    23 ]

  @DF-RHF Final Energy:  -304.73688173423375

   => Energetics <=

    Nuclear Repulsion Energy =            258.0724969296700237
    One-Electron Energy =                -927.6638029062316946
    Two-Electron Energy =                 364.8544242423279229
    Total Energy =                       -304.7368817342337479

Computation Completed


Properties will be evaluated at   0.000000,   0.000000,   0.000000 [a0]

Properties computed using the SCF density matrix

  Nuclear Dipole Moment: [e a0]
     X:    -4.4802      Y:     0.0017      Z:    -0.0001

  Electronic Dipole Moment: [e a0]
     X:     3.7437      Y:    -0.0018      Z:    -0.0002

  Dipole Moment: [e a0]
     X:    -0.7364      Y:    -0.0001      Z:    -0.0003     Total:     0.7364

  Dipole Moment: [D]
     X:    -1.8718      Y:    -0.0004      Z:    -0.0008     Total:     1.8718


*** tstop() called on n067 at Fri Jun  5 11:38:32 2020
Module time:
	user time   =      35.58 seconds =       0.59 minutes
	system time =       1.82 seconds =       0.03 minutes
	total time  =         11 seconds =       0.18 minutes
Total time:
	user time   =     203.93 seconds =       3.40 minutes
	system time =       9.02 seconds =       0.15 minutes
	total time  =         57 seconds =       0.95 minutes

*** tstart() called on n067
*** at Fri Jun  5 11:38:32 2020


  //>>>>>>>>>>>>>>>>>>>>>>>>>>>>>>>>>>>//
  //               DFMP2               //
  //<<<<<<<<<<<<<<<<<<<<<<<<<<<<<<<<<<<//

   => Loading Basis Set <=

    Name: (HEAVY-AUG-CC-PV(T+D)Z AUX)
    Role: RIFIT
    Keyword: DF_BASIS_MP2
    atoms 1, 4, 7, 10     entry C          line   148 file /opt/psi/4/master/share/psi4/basis/heavy-aug-cc-pvtz-ri.gbs 
    atoms 2-3, 5-6, 8, 11 entry H          line    44 file /opt/psi/4/master/share/psi4/basis/heavy-aug-cc-pvtz-ri.gbs 
    atoms 9, 12           entry O          line   264 file /opt/psi/4/master/share/psi4/basis/heavy-aug-cc-pvtz-ri.gbs 

	 --------------------------------------------------------
	                          DF-MP2                         
	      2nd-Order Density-Fitted Moller-Plesset Theory     
	              RMP2 Wavefunction,   4 Threads             
	                                                         
	        Rob Parrish, Justin Turney, Andy Simmonett,      
	           Ed Hohenstein, and C. David Sherrill          
	 --------------------------------------------------------

   => Auxiliary Basis Set <=

  Basis Set: (HEAVY-AUG-CC-PV(T+D)Z AUX)
    Blend: HEAVY-AUG-CC-PVTZ-RI
    Number of shells: 228
    Number of basis function: 816
    Number of Cartesian functions: 1026
    Spherical Harmonics?: true
    Max angular momentum: 4

	 --------------------------------------------------------
	                 NBF =   360, NAUX =   816
	 --------------------------------------------------------
	   CLASS    FOCC     OCC    AOCC    AVIR     VIR    FVIR
	   PAIRS       6      23      17     337     337       0
	 --------------------------------------------------------

	-----------------------------------------------------------
	 ==================> DF-MP2 Energies <==================== 
	-----------------------------------------------------------
	 Reference Energy          =    -304.7368817342337479 [Eh]
	 Singles Energy            =      -0.0000000000000000 [Eh]
	 Same-Spin Energy          =      -0.2850942786977905 [Eh]
	 Opposite-Spin Energy      =      -0.8617585448051255 [Eh]
	 Correlation Energy        =      -1.1468528235029161 [Eh]
	 Total Energy              =    -305.8837345577366591 [Eh]
	-----------------------------------------------------------
	 ================> DF-SCS-MP2 Energies <================== 
	-----------------------------------------------------------
	 SCS Same-Spin Scale       =       0.3333333333333333 [-]
	 SCS Opposite-Spin Scale   =       1.2000000000000000 [-]
	 SCS Same-Spin Energy      =      -0.0950314262325968 [Eh]
	 SCS Opposite-Spin Energy  =      -1.0341102537661506 [Eh]
	 SCS Correlation Energy    =      -1.1291416799987475 [Eh]
	 SCS Total Energy          =    -305.8660234142324725 [Eh]
	-----------------------------------------------------------


*** tstop() called on n067 at Fri Jun  5 11:38:34 2020
Module time:
	user time   =       6.84 seconds =       0.11 minutes
	system time =       0.11 seconds =       0.00 minutes
	total time  =          2 seconds =       0.03 minutes
Total time:
	user time   =     210.77 seconds =       3.51 minutes
	system time =       9.13 seconds =       0.15 minutes
	total time  =         59 seconds =       0.98 minutes

========================OPTAVC-XTPL==========================

MP2/TZ correlation energy -1.146852823502916

=============================================================

    Psi4 stopped on: Friday, 05 June 2020 11:38AM
    Psi4 wall time for execution: 0:00:58.09

*** Psi4 exiting successfully. Buy a developer a beer!
