
 Primary working directories    : /tmp/320938.868.gen4.q
 Secondary working directories  : /tmp/320938.868.gen4.q
 Wavefunction directory         : /home/vulcan/mel64643/wfu/
 Main file repository           : /tmp/320938.868.gen4.q/

 ARCHNAME  : Linux/x86_64
 FC        : /opt/intel/compilers_and_libraries_2016.1.150/linux/bin/intel64/ifort
 FCVERSION : 16.0.1
 BLASLIB   : -mkl
 id        : ccgc

 Nodes     nprocs
 n058         3
 Number of processes for MPI-2 version of Molpro:   nprocs(total)=    4   nprocs(compute)=    3   nprocs(helper)=    1
 ga_uses_ma=false, calling ma_init with nominal heap.
 GA-space will be limited to   8.0 MW (determined by -G option)

 Using customized tuning parameters: mindgm=10; mindgv=16; mindgc=4; mindgr=1; noblas=0; mincuda=1000; minvec=7
 default implementation of scratch files=sf  

 ***,Frequencies for min3
 memory,1000,m
 gthresh,energy=1.0d-10,orbital=1.0d-10,oneint=1.0d-16,twoint=1.0d-16,optgrad=1.0d-6,compress=1.0d-13
 geomtyp=xyz
 
  geometry = {
  12
  arbitrary comment
     C    1.776964391707    0.711398808326   -0.047331391796
     C    0.491811976407   -0.059992870174   -0.196493901896
     C    0.450332819107   -1.536294019674    0.101417522804
     O   -0.560767745493    0.727234937526    0.254453964104
     O   -1.837840335593    0.092269037726   -0.120531795196
     H    2.585373063107    0.209225075821   -0.611389330363
     H    1.659989573005    1.743542090086   -0.426288424049
     H    2.094891298335    0.774614635789    1.017774012023
     H   -0.504570228159   -1.982574681988   -0.220267664385
     H    1.280500094264   -2.045350252826   -0.417091813611
     H    0.562844755809   -1.719536187700    1.194539693797
     H   -1.987344947912    0.550167325500   -0.967093547680
  }
 
 basis=cc-pvdz
 {rhf;maxit,200}
 {uccsd(t);maxit,200}

 Variables initialized (661), CPU time= 0.00 sec
 Commands  initialized (458), CPU time= 0.01 sec, 486 directives.
 Default parameters read. Elapsed time= 0.06 sec

 Checking input...
 Passed
1


                                         ***  PROGRAM SYSTEM MOLPRO  ***
                         Copyright, University College Cardiff Consultants Limited, 2008

                                    Version 2010.1 linked May 16 2016 07:17:05


 **********************************************************************************************************************************
 LABEL *   Frequencies for min3                                                          
 Linux-4.4.3/n058(x86_64) 64 bit mpp version                                             DATE: 07-Mar-20          TIME: 06:04:50  
 **********************************************************************************************************************************

 SHA1:             9e8077add272b0f3cad6f7df79ec5211205f459d
 **********************************************************************************************************************************

 THRESHOLDS:

 ZERO    =  1.00D-12  ONEINT  =  1.00D-16  TWOINT  =  1.00D-16  PREFAC  =  1.00D-14  LOCALI  =  1.00D-09  EORDER  =  1.00D-04
 ENERGY  =  1.00D-10  ETEST   =  0.00D+00  EDENS   =  0.00D+00  THRDEDEF=  1.00D-06  GRADIENT=  1.00D-02  STEP    =  1.00D-03
 ORBITAL =  1.00D-10  CIVEC   =  1.00D-05  COEFF   =  1.00D-04  PRINTCI =  5.00D-02  PUNCHCI =  9.90D+01  OPTGRAD =  1.00D-06
 OPTENERG=  1.00D-06  OPTSTEP =  3.00D-04  THRGRAD =  1.00D-10  COMPRESS=  1.00D-13  VARMIN  =  1.00D-07  VARMAX  =  1.00D-03
 THRDOUB =  0.00D+00  THRDIV  =  1.00D-05  THRRED  =  1.00D-07  THRPSP  =  1.00D+00  THRDC   =  1.00D-10  THRCS   =  1.00D-10
 THRNRM  =  1.00D-08  THREQ   =  0.00D+00  THRDE   =  1.00D+00  THRREF  =  1.00D-05  SPARFAC =  1.00D+00  THRDLP  =  1.00D-07
 THRDIA  =  1.00D-10  THRDLS  =  1.00D-07  THRGPS  =  0.00D+00  THRKEX  =  0.00D+00  THRDIS  =  2.00D-01  THRVAR  =  1.00D-10
 THRLOC  =  1.00D-06  THRGAP  =  1.00D-06  THRLOCT = -1.00D+00  THRGAPT = -1.00D+00  THRORB  =  1.00D-06  THRMLTP =  0.00D+00
 THRCPQCI=  1.00D-10  KEXTA   =  0.00D+00  THRCOARS=  0.00D+00  SYMTOL  =  1.00D-06  GRADTOL =  1.00D-06  THROVL  =  1.00D-08
 THRORTH =  1.00D-08  GRID    =  1.00D-06  GRIDMAX =  1.00D-03  DTMAX   =  0.00D+00

 SETTING GEOMTYP        =    XYZ

 Variable memory set to 1000000000 words,  buffer space   230000 words

 SETTING BASIS          =    CC-PVDZ


 Recomputing integrals since basis changed


 Using spherical harmonics

 Library entry C      S cc-pVDZ              selected for orbital group  1
 Library entry C      P cc-pVDZ              selected for orbital group  1
 Library entry C      D cc-pVDZ              selected for orbital group  1
 Library entry O      S cc-pVDZ              selected for orbital group  2
 Library entry O      P cc-pVDZ              selected for orbital group  2
 Library entry O      D cc-pVDZ              selected for orbital group  2
 Library entry H      S cc-pVDZ              selected for orbital group  3
 Library entry H      P cc-pVDZ              selected for orbital group  3

1PROGRAM * SEWARD (Integral evaluation for generally contracted gaussian basis sets)     Author: Roland Lindh, 1990

 Geometry written to block  1 of record 700


 Point group  C1  



 ATOMIC COORDINATES

 NR  ATOM    CHARGE       X              Y              Z

   1  C       6.00    3.357976046    1.344348918   -0.089443368
   2  C       6.00    0.929389944   -0.113370094   -0.371319661
   3  C       6.00    0.851005696   -2.903174955    0.191651343
   4  O       8.00   -1.059697462    1.374274865    0.480848305
   5  O       8.00   -3.473014908    0.174363212   -0.227772083
   6  H       1.00    4.885647037    0.395378093   -1.155358394
   7  H       1.00    3.136925674    3.294817049   -0.805568374
   8  H       1.00    3.958770829    1.463809519    1.923314146
   9  H       1.00   -0.953499545   -3.746523184   -0.416245561
  10  H       1.00    2.419794489   -3.865151821   -0.788189299
  11  H       1.00    1.063622443   -3.249452468    2.257352874
  12  H       1.00   -3.755537680    1.039665572   -1.827541949

 Bond lengths in Bohr (Angstrom)

 1-2  2.846476668  1-6  2.090573875  1-7  2.089503343  1-8  2.103905420  2-3  2.847119878
     ( 1.506290578)     ( 1.106284048)     ( 1.105717547)     ( 1.113338798)     ( 1.506630951)

  2- 4  2.625975338   3- 9  2.082549891   3-10  2.084846626   3-11  2.105287822   4- 5  2.786760112
       ( 1.389606300)       ( 1.102037939)       ( 1.103253319)       ( 1.114070334)       ( 1.474689938)

  5-12  1.840606127
       ( 0.974006813)

 Bond angles

  1-2-3  120.37866573   1-2-4  108.90555081   2-1-6  109.90789723   2-1-7  110.72230376

  2- 1- 8  111.55860415   2- 3- 9  111.28111556   2- 3-10  109.78414219   2- 3-11  110.63441472

  2- 4- 5  109.23946113   3- 2- 4  118.03986083   4- 5-12   98.71462251   6- 1- 7  109.04348770

  6- 1- 8  107.75096351   7- 1- 8  107.76325483   9- 3-10  109.14539694   9- 3-11  107.89732049

 10- 3-11  108.01452931

 NUCLEAR CHARGE:                   41
 NUMBER OF PRIMITIVE AOS:         184
 NUMBER OF SYMMETRY AOS:          179
 NUMBER OF CONTRACTIONS:          105   ( 105A   )
 NUMBER OF CORE ORBITALS:           5   (   5A   )
 NUMBER OF VALENCE ORBITALS:       27   (  27A   )


 NUCLEAR REPULSION ENERGY  183.23182121


 Eigenvalues of metric

         1 0.345E-02 0.435E-02 0.105E-01 0.141E-01 0.182E-01 0.214E-01 0.331E-01 0.346E-01


 Contracted 2-electron integrals neglected if value below      1.0D-16
 AO integral compression algorithm  1   Integral accuracy      1.0D-16

     127.402 MB (compressed) written to integral file ( 93.4%)

     Node minimum: 41.157 MB, node maximum: 44.040 MB


 NUMBER OF SORTED TWO-ELECTRON INTEGRALS:    5164320.     BUFFER LENGTH:  32768
 NUMBER OF SEGMENTS:   1  SEGMENT LENGTH:    5164320      RECORD LENGTH: 524288

 Memory used in sort:       5.72 MW

 SORT1 READ    17075629. AND WROTE     5135928. INTEGRALS IN     15 RECORDS. CPU TIME:     0.22 SEC, REAL TIME:     0.25 SEC
 SORT2 READ    15396684. AND WROTE    15487395. INTEGRALS IN    471 RECORDS. CPU TIME:     0.06 SEC, REAL TIME:     0.11 SEC

 Node minimum:     5160610.  Node maximum:     5164320. integrals

 OPERATOR DM      FOR CENTER  0  COORDINATES:    0.000000    0.000000    0.000000


 **********************************************************************************************************************************
 DATASETS  * FILE   NREC   LENGTH (MB)   RECORD NAMES
              1      18        3.17       500      610      700      900      950      970     1000      129      960     1100   
                                          VAR    BASINP    GEOM    SYMINP    ZMAT    AOBASIS   BASIS     P2S    ABASIS      S 
                                         1400     1410     1200     1210     1080     1600     1650     1700   
                                           T        V       H0       H01     AOSYM     SMH    MOLCAS    OPER   

 PROGRAMS   *        TOTAL       INT
 CPU TIMES  *         0.96      0.89
 REAL TIME  *         1.38 SEC
 DISK USED  *       305.44 MB      
 GA USED    *         0.00 MB       (max)       0.00 MB       (current)
 **********************************************************************************************************************************

1PROGRAM * RHF-SCF (OPEN SHELL)       Authors: W. Meyer, H.-J. Werner


 NUMBER OF ELECTRONS:      21+   20-    SPACE SYMMETRY=1    SPIN SYMMETRY: Doublet 
 CONVERGENCE THRESHOLDS:    1.00E-10 (Density)    1.00E-11 (Energy)
 MAX. NUMBER OF ITERATIONS:      200
 INTERPOLATION TYPE:            DIIS
 INTERPOLATION STEPS:              2 (START)      1 (STEP)
 LEVEL SHIFTS:                 -0.30 (CLOSED)  0.00 (OPEN) 



 Orbital guess generated from atomic densities. Full valence occupancy:   32

 Molecular orbital dump at record        2100.2

 ITERATION    DDIFF          GRAD             ENERGY        2-EL.EN.            DIPOLE MOMENTS         DIIS
    1      0.000D+00      0.000D+00      -267.17825802    555.834901    0.57143    0.04958   -0.74911    0
    2      0.000D+00      0.617D-02      -267.24894723    555.756906    0.41481   -0.13171   -0.59853    1
    3      0.928D-02      0.214D-02      -267.26112524    555.674883    0.39452   -0.05991   -0.62598    2
    4      0.336D-02      0.912D-03      -267.26473424    555.827285    0.37987   -0.10017   -0.64241    3
    5      0.186D-02      0.363D-03      -267.26530337    555.798706    0.38240   -0.09374   -0.63540    4
    6      0.792D-03      0.110D-03      -267.26537979    555.784975    0.38066   -0.09355   -0.63815    5
    7      0.277D-03      0.511D-04      -267.26539993    555.781965    0.37994   -0.09331   -0.63764    6
    8      0.144D-03      0.273D-04      -267.26540600    555.780025    0.38021   -0.09342   -0.63786    7
    9      0.924D-04      0.115D-04      -267.26540692    555.780333    0.38040   -0.09338   -0.63762    8
   10      0.366D-04      0.501D-05      -267.26540707    555.780946    0.38065   -0.09339   -0.63768    9
   11      0.147D-04      0.196D-05      -267.26540710    555.780788    0.38071   -0.09339   -0.63769    9
   12      0.651D-05      0.670D-06      -267.26540710    555.780922    0.38073   -0.09339   -0.63768    9
   13      0.227D-05      0.226D-06      -267.26540710    555.780838    0.38073   -0.09339   -0.63768    9
   14      0.631D-06      0.757D-07      -267.26540710    555.780847    0.38073   -0.09339   -0.63768    9
   15      0.192D-06      0.299D-07      -267.26540710    555.780843    0.38073   -0.09339   -0.63768    9
   16      0.822D-07      0.144D-07      -267.26540710    555.780844    0.38073   -0.09339   -0.63768    9
   17      0.372D-07      0.747D-08      -267.26540710    555.780844    0.38073   -0.09339   -0.63768    9
   18      0.221D-07      0.341D-08      -267.26540710    555.780844    0.38073   -0.09339   -0.63768    9
   19      0.114D-07      0.133D-08      -267.26540710    555.780844    0.38073   -0.09339   -0.63768    9
   20      0.443D-08      0.565D-09      -267.26540710    555.780844    0.38073   -0.09339   -0.63768    9
   21      0.165D-08      0.286D-09      -267.26540710    555.780844    0.38073   -0.09339   -0.63768    9
   22      0.752D-09      0.161D-09      -267.26540710    555.780844    0.38073   -0.09339   -0.63768    9
   23      0.445D-09      0.794D-10      -267.26540710    555.780844    0.38073   -0.09339   -0.63768    9
   24      0.263D-09      0.316D-10      -267.26540710    555.780844    0.38073   -0.09339   -0.63768    9
   25      0.929D-10      0.129D-10      -267.26540710    555.780844    0.38073   -0.09339   -0.63768    0

 Final alpha occupancy:  21
 Final beta  occupancy:  20

 !RHF STATE 1.1 Energy               -267.265407102794
 Nuclear energy                       183.23182121
 One-electron energy                 -728.38765046
 Two-electron energy                  277.89042214
 Virial quotient                       -1.00154883
 !RHF STATE 1.1 Dipole moment           0.38073090    -0.09339144    -0.63767934
 Dipole moment /Debye                   0.96765803    -0.23736181    -1.62071305

 Orbital energies:

         1.1          2.1          3.1          4.1          5.1          6.1          7.1          8.1          9.1         10.1
    -20.630446   -20.628769   -11.279243   -11.238075   -11.231958    -1.470190    -1.240772    -1.023287    -0.945371    -0.768454

        11.1         12.1         13.1         14.1         15.1         16.1         17.1         18.1         19.1         20.1
     -0.704664    -0.643003    -0.626736    -0.588844    -0.545150    -0.543553    -0.538959    -0.516996    -0.493005    -0.469770

        21.1         22.1         23.1
     -0.352313     0.181326     0.183531


 **********************************************************************************************************************************
 DATASETS  * FILE   NREC   LENGTH (MB)   RECORD NAMES
              1      18        3.17       500      610      700      900      950      970     1000      129      960     1100   
                                          VAR    BASINP    GEOM    SYMINP    ZMAT    AOBASIS   BASIS     P2S    ABASIS      S 
                                         1400     1410     1200     1210     1080     1600     1650     1700   
                                           T        V       H0       H01     AOSYM     SMH    MOLCAS    OPER   

              2       3        0.77       700     1000     2100   
                                         GEOM     BASIS     RHF  

 PROGRAMS   *        TOTAL       RHF       INT
 CPU TIMES  *         2.06      1.09      0.89
 REAL TIME  *         2.63 SEC
 DISK USED  *       322.01 MB      
 SF USED    *         0.04 MB      
 GA USED    *         0.00 MB       (max)       0.00 MB       (current)
 **********************************************************************************************************************************


1PROGRAM * CCSD (Unrestricted open-shell coupled cluster)     Authors: C. Hampel, H.-J. Werner, 1991, M. Deegan, P.J. Knowles, 1992


 Convergence thresholds:  THRVAR = 1.00D-08  THRDEN = 1.00D-10

 CCSD(T)     terms to be evaluated (factor= 1.000)


 Number of core orbitals:           5 (   5 )
 Number of closed-shell orbitals:  15 (  15 )
 Number of active  orbitals:        1 (   1 )
 Number of external orbitals:      84 (  84 )

 Memory could be reduced to 24.91 Mwords without degradation in triples

 Number of N-1 electron functions:              31
 Number of N-2 electron functions:             465
 Number of singly external CSFs:              2635
 Number of doubly external CSFs:           2537250
 Total number of CSFs:                     2539885

 Molecular orbitals read from record     2100.2  Type=RHF/CANONICAL (state 1.1)

 Integral transformation finished. Total CPU:   0.93 sec, npass=  1  Memory used:  12.63 MW

 Starting RMP2 calculation

 ITER.      SQ.NORM     CORR.ENERGY   TOTAL ENERGY   ENERGY CHANGE        DEN1      VAR(S)    VAR(P)  DIIS     TIME
   1      1.24301370    -0.78636095  -268.05176806    -0.78636095    -0.00304959  0.20D-04  0.11D-02  1  1     1.26
   2      1.24565485    -0.78964972  -268.05505683    -0.00328877    -0.00000474  0.54D-06  0.19D-05  2  2     1.58
   3      1.24572040    -0.78969179  -268.05509889    -0.00004207    -0.00000003  0.16D-07  0.68D-08  3  3     1.92
   4      1.24572135    -0.78969179  -268.05509889    -0.00000000    -0.00000000  0.27D-09  0.38D-10  4  4     2.29
   5      1.24572144    -0.78969182  -268.05509893    -0.00000003    -0.00000000  0.25D-11  0.65D-12  5  5     2.68
   6      1.24572145    -0.78969183  -268.05509893    -0.00000001    -0.00000000  0.28D-13  0.87D-14  6  6     3.10
   7      1.24572145    -0.78969183  -268.05509893     0.00000000    -0.00000000  0.47D-15  0.12D-15  6  1     3.54
   8      1.24572145    -0.78969183  -268.05509893     0.00000000    -0.00000000  0.59D-17  0.13D-17  6  2     3.96

 Norm of t1 vector:      0.03892752      S-energy:    -0.00227108      T1 diagnostic:  0.00055033
 Norm of t2 vector:      0.49417213      P-energy:    -0.78742075
                                         Alpha-Beta:  -0.59340136
                                         Alpha-Alpha: -0.10094005
                                         Beta-Beta:   -0.09307934

 Spin contamination <S**2-Sz**2-Sz>     0.00104020
  Reference energy                   -267.265407102794
  RHF-RMP2 correlation energy          -0.789691828379
 !RHF-RMP2 energy                    -268.055098931173

 Starting UCCSD calculation

 ITER.      SQ.NORM     CORR.ENERGY   TOTAL ENERGY   ENERGY CHANGE        DEN1      VAR(S)    VAR(P)  DIIS     TIME
   1      1.26278623    -0.80903313  -268.07444024    -0.80903313    -0.02515448  0.38D-02  0.59D-02  1  1     9.32
   2      1.29155755    -0.83644041  -268.10184752    -0.02740728    -0.00201093  0.22D-03  0.66D-03  2  2    14.68
   3      1.30149773    -0.84093792  -268.10634502    -0.00449750    -0.00032463  0.19D-03  0.56D-04  3  3    20.06
   4      1.30641087    -0.84241496  -268.10782206    -0.00147704    -0.00007209  0.43D-04  0.14D-04  4  4    25.46
   5      1.30914104    -0.84280313  -268.10821023    -0.00038817    -0.00002367  0.19D-04  0.32D-05  5  5    30.88
   6      1.31108009    -0.84300760  -268.10841471    -0.00020448    -0.00000645  0.42D-05  0.12D-05  6  6    36.37
   7      1.31202900    -0.84306637  -268.10847347    -0.00005876    -0.00000208  0.14D-05  0.37D-06  6  2    41.82
   8      1.31247023    -0.84310903  -268.10851613    -0.00004266    -0.00000065  0.45D-06  0.11D-06  6  1    47.27
   9      1.31265520    -0.84311360  -268.10852070    -0.00000457    -0.00000022  0.15D-06  0.35D-07  6  4    52.73
  10      1.31271827    -0.84311652  -268.10852362    -0.00000292    -0.00000005  0.35D-07  0.95D-08  6  3    58.20
  11      1.31274775    -0.84311526  -268.10852237     0.00000126    -0.00000002  0.13D-07  0.28D-08  6  5    63.67
  12      1.31275812    -0.84311501  -268.10852211     0.00000026    -0.00000000  0.26D-08  0.95D-09  6  6    69.11
  13      1.31275698    -0.84311409  -268.10852119     0.00000091    -0.00000000  0.96D-09  0.28D-09  6  2    74.57
  14      1.31275177    -0.84311325  -268.10852035     0.00000084    -0.00000000  0.21D-09  0.67D-10  6  1    80.02
  15      1.31274770    -0.84311266  -268.10851976     0.00000059    -0.00000000  0.78D-10  0.19D-10  6  4    85.48
  16      1.31274452    -0.84311228  -268.10851938     0.00000038    -0.00000000  0.28D-10  0.63D-11  6  3    90.93
  17      1.31274232    -0.84311204  -268.10851914     0.00000024    -0.00000000  0.10D-10  0.24D-11  6  5    96.38
  18      1.31274141    -0.84311198  -268.10851908     0.00000006    -0.00000000  0.41D-11  0.87D-12  6  6   101.82
  19      1.31274080    -0.84311194  -268.10851905     0.00000003    -0.00000000  0.16D-11  0.37D-12  6  2   107.29
  20      1.31274049    -0.84311193  -268.10851904     0.00000001    -0.00000000  0.60D-12  0.13D-12  6  1   112.76
  21      1.31274032    -0.84311192  -268.10851903     0.00000001    -0.00000000  0.28D-12  0.58D-13  6  4   118.23
  22      1.31274020    -0.84311191  -268.10851902     0.00000001    -0.00000000  0.74D-13  0.21D-13  6  3   124.04
  23      1.31274014    -0.84311191  -268.10851901     0.00000000    -0.00000000  0.21D-13  0.63D-14  6  5   129.50
  24      1.31274014    -0.84311191  -268.10851902    -0.00000000    -0.00000000  0.67D-14  0.22D-14  6  6   134.97
  25      1.31274014    -0.84311191  -268.10851902    -0.00000000    -0.00000000  0.21D-14  0.52D-15  6  2   140.50
  26      1.31274015    -0.84311191  -268.10851902    -0.00000000    -0.00000000  0.77D-15  0.15D-15  6  1   145.98
  27      1.31274016    -0.84311192  -268.10851902    -0.00000000    -0.00000000  0.20D-15  0.62D-16  6  3   151.47
  28      1.31274016    -0.84311192  -268.10851902    -0.00000000    -0.00000000  0.30D-16  0.11D-16  6  4   156.96
  29      1.31274017    -0.84311192  -268.10851902    -0.00000000    -0.00000000  0.70D-17  0.29D-17  6  5   162.46
  30      1.31274017    -0.84311192  -268.10851902    -0.00000000    -0.00000000  0.15D-17  0.54D-18  6  6   167.91
  31      1.31274017    -0.84311192  -268.10851902    -0.00000000    -0.00000000  0.35D-18  0.10D-18  6  2   173.37

 Norm of t1 vector:      0.13871188      S-energy:    -0.00282052      T1 diagnostic:  0.01616898
                                                                       D1 diagnostic:  0.06283024
 Norm of t2 vector:      0.54175565      P-energy:    -0.84029139
                                         Alpha-Beta:  -0.66484497
                                         Alpha-Alpha: -0.09147419
                                         Beta-Beta:   -0.08397223

 Spin contamination <S**2-Sz**2-Sz>     0.00217083

 Memory could be reduced to 28.85 Mwords without degradation in triples
 

 RESULTS
 =======

  Reference energy                   -267.265407102794
  UCCSD singles energy                 -0.002820522949
  UCCSD pair energy                    -0.840291392720
  UCCSD correlation energy             -0.843111915669
  Triples (T) contribution             -0.024974850987
  Total correlation energy             -0.868086766655
 
  RHF-UCCSD energy                   -268.108519018463
  RHF-UCCSD[T] energy                -268.134829675884
  RHF-UCCSD-T energy                 -268.133072408447
 !RHF-UCCSD(T) energy                -268.133493869450

 Program statistics:

 Available memory in ccsd:               999997692
 Min. memory needed in ccsd:               7337057
 Max. memory used in ccsd:                10523002
 Max. memory used in cckext:              10867977 (31 integral passes)
 Max. memory used in cckint:              12633073 ( 1 integral passes)



 **********************************************************************************************************************************
 DATASETS  * FILE   NREC   LENGTH (MB)   RECORD NAMES
              1      18        3.17       500      610      700      900      950      970     1000      129      960     1100   
                                          VAR    BASINP    GEOM    SYMINP    ZMAT    AOBASIS   BASIS     P2S    ABASIS      S 
                                         1400     1410     1200     1210     1080     1600     1650     1700   
                                           T        V       H0       H01     AOSYM     SMH    MOLCAS    OPER   

              2       3        0.77       700     1000     2100   
                                         GEOM     BASIS     RHF  

 PROGRAMS   *        TOTAL  UCCSD(T)       RHF       INT
 CPU TIMES  *       224.93    222.88      1.09      0.89
 REAL TIME  *       245.44 SEC
 DISK USED  *         1.29 GB      
 SF USED    *       553.73 MB      
 GA USED    *         0.00 MB       (max)       0.00 MB       (current)
 **********************************************************************************************************************************

        UCCSD(T)        RHF-SCF 
   -268.13349387   -267.26540710
 **********************************************************************************************************************************
 Variable memory released
