
 Primary working directories    : /tmp/320938.740.gen6.q
 Secondary working directories  : /tmp/320938.740.gen6.q
 Wavefunction directory         : /home/vulcan/mel64643/wfu/
 Main file repository           : /tmp/320938.740.gen6.q/

 ARCHNAME  : Linux/x86_64
 FC        : /opt/intel/compilers_and_libraries_2016.1.150/linux/bin/intel64/ifort
 FCVERSION : 16.0.1
 BLASLIB   : -mkl
 id        : ccgc

 Nodes     nprocs
 n090         3
 Number of processes for MPI-2 version of Molpro:   nprocs(total)=    4   nprocs(compute)=    3   nprocs(helper)=    1
 ga_uses_ma=false, calling ma_init with nominal heap.
 GA-space will be limited to   8.0 MW (determined by -G option)

 Using customized tuning parameters: mindgm=10; mindgv=16; mindgc=4; mindgr=1; noblas=0; mincuda=1000; minvec=7
 default implementation of scratch files=sf  

 ***,Frequencies for min3
 memory,1000,m
 gthresh,energy=1.0d-10,orbital=1.0d-10,oneint=1.0d-16,twoint=1.0d-16,optgrad=1.0d-6,compress=1.0d-13
 geomtyp=xyz
 
  geometry = {
  12
  arbitrary comment
     C    1.776964391707    0.711398808326   -0.047331391796
     C    0.491811976407   -0.059992870174   -0.196493901896
     C    0.450332819107   -1.536294019674    0.101417522804
     O   -0.560767745493    0.727234937526    0.254453964104
     O   -1.837840335593    0.092269037726   -0.120531795196
     H    2.585373063107    0.211465914126   -0.609253730037
     H    1.660339334268    1.742842534338   -0.427332566110
     H    2.095430339175    0.774065674771    1.016773924567
     H   -0.504973629472   -1.982768234876   -0.220079656052
     H    1.283439743162   -2.048518476622   -0.417936067198
     H    0.561293833923   -1.718502753581    1.194472645418
     H   -1.989219075715    0.551503346526   -0.966461624856
  }
 
 basis=cc-pvdz
 {rhf;maxit,200}
 {uccsd(t);maxit,200}

 Variables initialized (661), CPU time= 0.00 sec
 Commands  initialized (458), CPU time= 0.01 sec, 486 directives.
 Default parameters read. Elapsed time= 0.07 sec

 Checking input...
 Passed
1


                                         ***  PROGRAM SYSTEM MOLPRO  ***
                         Copyright, University College Cardiff Consultants Limited, 2008

                                    Version 2010.1 linked May 16 2016 07:17:05


 **********************************************************************************************************************************
 LABEL *   Frequencies for min3                                                          
 Linux-4.4.3/n090(x86_64) 64 bit mpp version                                             DATE: 07-Mar-20          TIME: 05:19:05  
 **********************************************************************************************************************************

 SHA1:             9e8077add272b0f3cad6f7df79ec5211205f459d
 **********************************************************************************************************************************

 THRESHOLDS:

 ZERO    =  1.00D-12  ONEINT  =  1.00D-16  TWOINT  =  1.00D-16  PREFAC  =  1.00D-14  LOCALI  =  1.00D-09  EORDER  =  1.00D-04
 ENERGY  =  1.00D-10  ETEST   =  0.00D+00  EDENS   =  0.00D+00  THRDEDEF=  1.00D-06  GRADIENT=  1.00D-02  STEP    =  1.00D-03
 ORBITAL =  1.00D-10  CIVEC   =  1.00D-05  COEFF   =  1.00D-04  PRINTCI =  5.00D-02  PUNCHCI =  9.90D+01  OPTGRAD =  1.00D-06
 OPTENERG=  1.00D-06  OPTSTEP =  3.00D-04  THRGRAD =  1.00D-10  COMPRESS=  1.00D-13  VARMIN  =  1.00D-07  VARMAX  =  1.00D-03
 THRDOUB =  0.00D+00  THRDIV  =  1.00D-05  THRRED  =  1.00D-07  THRPSP  =  1.00D+00  THRDC   =  1.00D-10  THRCS   =  1.00D-10
 THRNRM  =  1.00D-08  THREQ   =  0.00D+00  THRDE   =  1.00D+00  THRREF  =  1.00D-05  SPARFAC =  1.00D+00  THRDLP  =  1.00D-07
 THRDIA  =  1.00D-10  THRDLS  =  1.00D-07  THRGPS  =  0.00D+00  THRKEX  =  0.00D+00  THRDIS  =  2.00D-01  THRVAR  =  1.00D-10
 THRLOC  =  1.00D-06  THRGAP  =  1.00D-06  THRLOCT = -1.00D+00  THRGAPT = -1.00D+00  THRORB  =  1.00D-06  THRMLTP =  0.00D+00
 THRCPQCI=  1.00D-10  KEXTA   =  0.00D+00  THRCOARS=  0.00D+00  SYMTOL  =  1.00D-06  GRADTOL =  1.00D-06  THROVL  =  1.00D-08
 THRORTH =  1.00D-08  GRID    =  1.00D-06  GRIDMAX =  1.00D-03  DTMAX   =  0.00D+00

 SETTING GEOMTYP        =    XYZ

 Variable memory set to 1000000000 words,  buffer space   230000 words

 SETTING BASIS          =    CC-PVDZ


 Recomputing integrals since basis changed


 Using spherical harmonics

 Library entry C      S cc-pVDZ              selected for orbital group  1
 Library entry C      P cc-pVDZ              selected for orbital group  1
 Library entry C      D cc-pVDZ              selected for orbital group  1
 Library entry O      S cc-pVDZ              selected for orbital group  2
 Library entry O      P cc-pVDZ              selected for orbital group  2
 Library entry O      D cc-pVDZ              selected for orbital group  2
 Library entry H      S cc-pVDZ              selected for orbital group  3
 Library entry H      P cc-pVDZ              selected for orbital group  3

1PROGRAM * SEWARD (Integral evaluation for generally contracted gaussian basis sets)     Author: Roland Lindh, 1990

 Geometry written to block  1 of record 700


 Point group  C1  



 ATOMIC COORDINATES

 NR  ATOM    CHARGE       X              Y              Z

   1  C       6.00    3.357976046    1.344348918   -0.089443368
   2  C       6.00    0.929389944   -0.113370094   -0.371319661
   3  C       6.00    0.851005696   -2.903174955    0.191651343
   4  O       8.00   -1.059697462    1.374274865    0.480848305
   5  O       8.00   -3.473014908    0.174363212   -0.227772083
   6  H       1.00    4.885647037    0.399612664   -1.151322694
   7  H       1.00    3.137586627    3.293495080   -0.807541517
   8  H       1.00    3.959789469    1.462772133    1.921424255
   9  H       1.00   -0.954261863   -3.746888946   -0.415890277
  10  H       1.00    2.425349621   -3.871138896   -0.789784707
  11  H       1.00    1.060691625   -3.247499560    2.257226171
  12  H       1.00   -3.759079269    1.042190285   -1.826347788

 Bond lengths in Bohr (Angstrom)

 1-2  2.846476668  1-6  2.086598416  1-7  2.088877021  1-8  2.102330148  2-3  2.847119878
     ( 1.506290578)     ( 1.104180326)     ( 1.105386112)     ( 1.112505200)     ( 1.506630951)

  2- 4  2.625975338   3- 9  2.083254925   3-10  2.092541447   3-11  2.104549119   4- 5  2.786760112
       ( 1.389606300)       ( 1.102411027)       ( 1.107325242)       ( 1.113679429)       ( 1.474689938)

  5-12  1.841304139
       ( 0.974376185)

 Bond angles

  1-2-3  120.37866573   1-2-4  108.90555081   2-1-6  110.02247457   2-1-7  110.71975664

  2- 1- 8  111.57998328   2- 3- 9  111.28683433   2- 3-10  109.86545321   2- 3-11  110.58794500

  2- 4- 5  109.23946113   3- 2- 4  118.03986083   4- 5-12   98.76406582   6- 1- 7  108.95191967

  6- 1- 8  107.61908712   7- 1- 8  107.84585239   9- 3-10  109.13789194   9- 3-11  107.83687993

 10- 3-11  108.04038232

 NUCLEAR CHARGE:                   41
 NUMBER OF PRIMITIVE AOS:         184
 NUMBER OF SYMMETRY AOS:          179
 NUMBER OF CONTRACTIONS:          105   ( 105A   )
 NUMBER OF CORE ORBITALS:           5   (   5A   )
 NUMBER OF VALENCE ORBITALS:       27   (  27A   )


 NUCLEAR REPULSION ENERGY  183.22007040


 Eigenvalues of metric

         1 0.345E-02 0.435E-02 0.105E-01 0.141E-01 0.182E-01 0.214E-01 0.331E-01 0.346E-01


 Contracted 2-electron integrals neglected if value below      1.0D-16
 AO integral compression algorithm  1   Integral accuracy      1.0D-16

     127.664 MB (compressed) written to integral file ( 93.2%)

     Node minimum: 34.603 MB, node maximum: 56.623 MB


 NUMBER OF SORTED TWO-ELECTRON INTEGRALS:    5164320.     BUFFER LENGTH:  32768
 NUMBER OF SEGMENTS:   1  SEGMENT LENGTH:    5164320      RECORD LENGTH: 524288

 Memory used in sort:       5.72 MW

 SORT1 READ    17075251. AND WROTE     5135870. INTEGRALS IN     15 RECORDS. CPU TIME:     0.29 SEC, REAL TIME:     0.34 SEC
 SORT2 READ    15396594. AND WROTE    15487395. INTEGRALS IN    396 RECORDS. CPU TIME:     0.09 SEC, REAL TIME:     0.13 SEC

 Node minimum:     5160610.  Node maximum:     5164320. integrals

 OPERATOR DM      FOR CENTER  0  COORDINATES:    0.000000    0.000000    0.000000


 **********************************************************************************************************************************
 DATASETS  * FILE   NREC   LENGTH (MB)   RECORD NAMES
              1      18        3.17       500      610      700      900      950      970     1000      129      960     1100   
                                          VAR    BASINP    GEOM    SYMINP    ZMAT    AOBASIS   BASIS     P2S    ABASIS      S 
                                         1400     1410     1200     1210     1080     1600     1650     1700   
                                           T        V       H0       H01     AOSYM     SMH    MOLCAS    OPER   

 PROGRAMS   *        TOTAL       INT
 CPU TIMES  *         1.14      1.05
 REAL TIME  *         1.53 SEC
 DISK USED  *       318.33 MB      
 GA USED    *         0.00 MB       (max)       0.00 MB       (current)
 **********************************************************************************************************************************

1PROGRAM * RHF-SCF (OPEN SHELL)       Authors: W. Meyer, H.-J. Werner


 NUMBER OF ELECTRONS:      21+   20-    SPACE SYMMETRY=1    SPIN SYMMETRY: Doublet 
 CONVERGENCE THRESHOLDS:    1.00E-10 (Density)    1.00E-11 (Energy)
 MAX. NUMBER OF ITERATIONS:      200
 INTERPOLATION TYPE:            DIIS
 INTERPOLATION STEPS:              2 (START)      1 (STEP)
 LEVEL SHIFTS:                 -0.30 (CLOSED)  0.00 (OPEN) 



 Orbital guess generated from atomic densities. Full valence occupancy:   32

 Molecular orbital dump at record        2100.2

 ITERATION    DDIFF          GRAD             ENERGY        2-EL.EN.            DIPOLE MOMENTS         DIIS
    1      0.000D+00      0.000D+00      -267.17824515    555.815365    0.56980    0.04951   -0.74917    0
    2      0.000D+00      0.617D-02      -267.24892392    555.735382    0.41356   -0.13073   -0.59823    1
    3      0.927D-02      0.214D-02      -267.26110261    555.653609    0.39318   -0.05875   -0.62537    2
    4      0.336D-02      0.912D-03      -267.26471174    555.805730    0.37852   -0.09884   -0.64167    3
    5      0.186D-02      0.363D-03      -267.26528111    555.777059    0.38103   -0.09233   -0.63459    4
    6      0.792D-03      0.110D-03      -267.26535760    555.763314    0.37928   -0.09212   -0.63731    5
    7      0.277D-03      0.511D-04      -267.26537776    555.760307    0.37857   -0.09186   -0.63679    6
    8      0.144D-03      0.273D-04      -267.26538383    555.758361    0.37884   -0.09197   -0.63700    7
    9      0.925D-04      0.115D-04      -267.26538475    555.758677    0.37903   -0.09193   -0.63676    8
   10      0.366D-04      0.501D-05      -267.26538491    555.759289    0.37929   -0.09194   -0.63683    9
   11      0.147D-04      0.197D-05      -267.26538493    555.759130    0.37934   -0.09194   -0.63683    9
   12      0.651D-05      0.671D-06      -267.26538494    555.759265    0.37936   -0.09194   -0.63683    9
   13      0.228D-05      0.227D-06      -267.26538494    555.759180    0.37936   -0.09194   -0.63683    9
   14      0.633D-06      0.760D-07      -267.26538494    555.759189    0.37936   -0.09194   -0.63683    9
   15      0.193D-06      0.302D-07      -267.26538494    555.759185    0.37936   -0.09194   -0.63682    9
   16      0.831D-07      0.147D-07      -267.26538494    555.759187    0.37936   -0.09194   -0.63682    9
   17      0.379D-07      0.759D-08      -267.26538494    555.759187    0.37936   -0.09194   -0.63682    9
   18      0.226D-07      0.344D-08      -267.26538494    555.759187    0.37936   -0.09194   -0.63682    9
   19      0.115D-07      0.134D-08      -267.26538494    555.759187    0.37936   -0.09194   -0.63682    9
   20      0.445D-08      0.571D-09      -267.26538494    555.759187    0.37936   -0.09194   -0.63682    9
   21      0.167D-08      0.289D-09      -267.26538494    555.759187    0.37936   -0.09194   -0.63682    9
   22      0.761D-09      0.163D-09      -267.26538494    555.759187    0.37936   -0.09194   -0.63682    9
   23      0.449D-09      0.802D-10      -267.26538494    555.759187    0.37936   -0.09194   -0.63682    9
   24      0.265D-09      0.319D-10      -267.26538494    555.759187    0.37936   -0.09194   -0.63682    9
   25      0.939D-10      0.130D-10      -267.26538494    555.759187    0.37936   -0.09194   -0.63682    0

 Final alpha occupancy:  21
 Final beta  occupancy:  20

 !RHF STATE 1.1 Energy               -267.265384937150
 Nuclear energy                       183.22007040
 One-electron energy                 -728.36504867
 Two-electron energy                  277.87959334
 Virial quotient                       -1.00155686
 !RHF STATE 1.1 Dipole moment           0.37936139    -0.09193900    -0.63682497
 Dipole moment /Debye                   0.96417733    -0.23367031    -1.61854160

 Orbital energies:

         1.1          2.1          3.1          4.1          5.1          6.1          7.1          8.1          9.1         10.1
    -20.630496   -20.628805   -11.279251   -11.237689   -11.232382    -1.470148    -1.240738    -1.023197    -0.945329    -0.768463

        11.1         12.1         13.1         14.1         15.1         16.1         17.1         18.1         19.1         20.1
     -0.704565    -0.642987    -0.626780    -0.588841    -0.545226    -0.543270    -0.539009    -0.516813    -0.493009    -0.469792

        21.1         22.1         23.1
     -0.352281     0.181240     0.183573


 **********************************************************************************************************************************
 DATASETS  * FILE   NREC   LENGTH (MB)   RECORD NAMES
              1      18        3.17       500      610      700      900      950      970     1000      129      960     1100   
                                          VAR    BASINP    GEOM    SYMINP    ZMAT    AOBASIS   BASIS     P2S    ABASIS      S 
                                         1400     1410     1200     1210     1080     1600     1650     1700   
                                           T        V       H0       H01     AOSYM     SMH    MOLCAS    OPER   

              2       3        0.77       700     1000     2100   
                                         GEOM     BASIS     RHF  

 PROGRAMS   *        TOTAL       RHF       INT
 CPU TIMES  *         2.50      1.36      1.05
 REAL TIME  *         3.05 SEC
 DISK USED  *       334.90 MB      
 SF USED    *         0.04 MB      
 GA USED    *         0.00 MB       (max)       0.00 MB       (current)
 **********************************************************************************************************************************


1PROGRAM * CCSD (Unrestricted open-shell coupled cluster)     Authors: C. Hampel, H.-J. Werner, 1991, M. Deegan, P.J. Knowles, 1992


 Convergence thresholds:  THRVAR = 1.00D-08  THRDEN = 1.00D-10

 CCSD(T)     terms to be evaluated (factor= 1.000)


 Number of core orbitals:           5 (   5 )
 Number of closed-shell orbitals:  15 (  15 )
 Number of active  orbitals:        1 (   1 )
 Number of external orbitals:      84 (  84 )

 Memory could be reduced to 24.91 Mwords without degradation in triples

 Number of N-1 electron functions:              31
 Number of N-2 electron functions:             465
 Number of singly external CSFs:              2635
 Number of doubly external CSFs:           2537250
 Total number of CSFs:                     2539885

 Molecular orbitals read from record     2100.2  Type=RHF/CANONICAL (state 1.1)

 Integral transformation finished. Total CPU:   0.92 sec, npass=  1  Memory used:  12.63 MW

 Starting RMP2 calculation

 ITER.      SQ.NORM     CORR.ENERGY   TOTAL ENERGY   ENERGY CHANGE        DEN1      VAR(S)    VAR(P)  DIIS     TIME
   1      1.24303299    -0.78637579  -268.05176073    -0.78637579    -0.00304985  0.20D-04  0.11D-02  1  1     1.25
   2      1.24567443    -0.78966485  -268.05504979    -0.00328906    -0.00000474  0.54D-06  0.19D-05  2  2     1.53
   3      1.24573996    -0.78970691  -268.05509184    -0.00004206    -0.00000003  0.16D-07  0.68D-08  3  3     1.82
   4      1.24574091    -0.78970691  -268.05509184    -0.00000000    -0.00000000  0.27D-09  0.38D-10  4  4     2.14
   5      1.24574100    -0.78970694  -268.05509188    -0.00000003    -0.00000000  0.25D-11  0.65D-12  5  5     2.48
   6      1.24574101    -0.78970695  -268.05509188    -0.00000001    -0.00000000  0.28D-13  0.86D-14  6  6     2.85
   7      1.24574101    -0.78970695  -268.05509188     0.00000000    -0.00000000  0.47D-15  0.12D-15  6  1     3.21
   8      1.24574101    -0.78970695  -268.05509188     0.00000000    -0.00000000  0.59D-17  0.13D-17  6  2     3.58

 Norm of t1 vector:      0.03892712      S-energy:    -0.00227130      T1 diagnostic:  0.00055010
 Norm of t2 vector:      0.49419195      P-energy:    -0.78743564
                                         Alpha-Beta:  -0.59341802
                                         Alpha-Alpha: -0.10093985
                                         Beta-Beta:   -0.09307777

 Spin contamination <S**2-Sz**2-Sz>     0.00104002
  Reference energy                   -267.265384937150
  RHF-RMP2 correlation energy          -0.789706945744
 !RHF-RMP2 energy                    -268.055091882894

 Starting UCCSD calculation

 ITER.      SQ.NORM     CORR.ENERGY   TOTAL ENERGY   ENERGY CHANGE        DEN1      VAR(S)    VAR(P)  DIIS     TIME
   1      1.26280973    -0.80904966  -268.07443460    -0.80904966    -0.02515672  0.38D-02  0.59D-02  1  1     9.85
   2      1.29158617    -0.83646022  -268.10184516    -0.02741056    -0.00201107  0.22D-03  0.66D-03  2  2    16.07
   3      1.30152743    -0.84095863  -268.10634357    -0.00449841    -0.00032459  0.19D-03  0.56D-04  3  3    22.33
   4      1.30643998    -0.84243573  -268.10782067    -0.00147710    -0.00007207  0.43D-04  0.14D-04  4  4    28.61
   5      1.30916902    -0.84282377  -268.10820871    -0.00038804    -0.00002367  0.19D-04  0.32D-05  5  5    34.94
   6      1.31110761    -0.84302819  -268.10841313    -0.00020442    -0.00000646  0.42D-05  0.12D-05  6  6    41.26
   7      1.31205713    -0.84308698  -268.10847192    -0.00005879    -0.00000208  0.14D-05  0.37D-06  6  2    47.58
   8      1.31249908    -0.84312969  -268.10851462    -0.00004271    -0.00000065  0.45D-06  0.11D-06  6  1    53.93
   9      1.31268453    -0.84313428  -268.10851922    -0.00000459    -0.00000022  0.15D-06  0.35D-07  6  4    60.25
  10      1.31274783    -0.84313722  -268.10852215    -0.00000294    -0.00000005  0.35D-07  0.95D-08  6  3    66.58
  11      1.31277735    -0.84313595  -268.10852089     0.00000126    -0.00000002  0.13D-07  0.28D-08  6  5    72.92
  12      1.31278775    -0.84313569  -268.10852063     0.00000026    -0.00000000  0.26D-08  0.95D-09  6  6    79.26
  13      1.31278660    -0.84313478  -268.10851971     0.00000092    -0.00000000  0.96D-09  0.29D-09  6  2    85.59
  14      1.31278139    -0.84313393  -268.10851887     0.00000084    -0.00000000  0.21D-09  0.68D-10  6  1    91.93
  15      1.31277732    -0.84313334  -268.10851828     0.00000059    -0.00000000  0.78D-10  0.19D-10  6  4    98.27
  16      1.31277414    -0.84313296  -268.10851790     0.00000038    -0.00000000  0.28D-10  0.63D-11  6  3   104.58
  17      1.31277193    -0.84313272  -268.10851766     0.00000024    -0.00000000  0.10D-10  0.24D-11  6  5   110.92
  18      1.31277103    -0.84313266  -268.10851760     0.00000006    -0.00000000  0.41D-11  0.87D-12  6  6   117.18
  19      1.31277042    -0.84313263  -268.10851757     0.00000003    -0.00000000  0.16D-11  0.37D-12  6  2   123.49
  20      1.31277010    -0.84313262  -268.10851755     0.00000001    -0.00000000  0.60D-12  0.13D-12  6  1   129.81
  21      1.31276993    -0.84313261  -268.10851754     0.00000001    -0.00000000  0.28D-12  0.58D-13  6  4   135.99
  22      1.31276981    -0.84313260  -268.10851753     0.00000001    -0.00000000  0.74D-13  0.21D-13  6  3   142.32
  23      1.31276975    -0.84313259  -268.10851753     0.00000000    -0.00000000  0.21D-13  0.63D-14  6  5   148.64
  24      1.31276975    -0.84313260  -268.10851753    -0.00000000    -0.00000000  0.67D-14  0.23D-14  6  6   154.99
  25      1.31276975    -0.84313260  -268.10851753    -0.00000000    -0.00000000  0.21D-14  0.52D-15  6  2   161.31
  26      1.31276976    -0.84313260  -268.10851753    -0.00000000    -0.00000000  0.77D-15  0.15D-15  6  1   167.61
  27      1.31276977    -0.84313260  -268.10851754    -0.00000000    -0.00000000  0.20D-15  0.63D-16  6  3   173.93
  28      1.31276977    -0.84313260  -268.10851754    -0.00000000    -0.00000000  0.30D-16  0.11D-16  6  4   180.25
  29      1.31276977    -0.84313260  -268.10851754    -0.00000000    -0.00000000  0.71D-17  0.29D-17  6  5   186.56
  30      1.31276978    -0.84313260  -268.10851754    -0.00000000    -0.00000000  0.15D-17  0.54D-18  6  6   192.87
  31      1.31276978    -0.84313260  -268.10851754    -0.00000000    -0.00000000  0.35D-18  0.10D-18  6  2   199.20

 Norm of t1 vector:      0.13870168      S-energy:    -0.00282082      T1 diagnostic:  0.01616741
                                                                       D1 diagnostic:  0.06280387
 Norm of t2 vector:      0.54178559      P-energy:    -0.84031178
                                         Alpha-Beta:  -0.66487062
                                         Alpha-Alpha: -0.09147262
                                         Beta-Beta:   -0.08396855

 Spin contamination <S**2-Sz**2-Sz>     0.00217167

 Memory could be reduced to 28.85 Mwords without degradation in triples
 

 RESULTS
 =======

  Reference energy                   -267.265384937150
  UCCSD singles energy                 -0.002820815180
  UCCSD pair energy                    -0.840311783420
  UCCSD correlation energy             -0.843132598600
  Triples (T) contribution             -0.024975769386
  Total correlation energy             -0.868108367987
 
  RHF-UCCSD energy                   -268.108517535750
  RHF-UCCSD[T] energy                -268.134828978223
  RHF-UCCSD-T energy                 -268.133071855676
 !RHF-UCCSD(T) energy                -268.133493305137

 Program statistics:

 Available memory in ccsd:               999997692
 Min. memory needed in ccsd:               7337057
 Max. memory used in ccsd:                10523002
 Max. memory used in cckext:              10867977 (31 integral passes)
 Max. memory used in cckint:              12633073 ( 1 integral passes)



 **********************************************************************************************************************************
 DATASETS  * FILE   NREC   LENGTH (MB)   RECORD NAMES
              1      18        3.17       500      610      700      900      950      970     1000      129      960     1100   
                                          VAR    BASINP    GEOM    SYMINP    ZMAT    AOBASIS   BASIS     P2S    ABASIS      S 
                                         1400     1410     1200     1210     1080     1600     1650     1700   
                                           T        V       H0       H01     AOSYM     SMH    MOLCAS    OPER   

              2       3        0.77       700     1000     2100   
                                         GEOM     BASIS     RHF  

 PROGRAMS   *        TOTAL  UCCSD(T)       RHF       INT
 CPU TIMES  *       246.87    244.38      1.36      1.05
 REAL TIME  *       256.52 SEC
 DISK USED  *         1.30 GB      
 SF USED    *       553.73 MB      
 GA USED    *         0.00 MB       (max)       0.00 MB       (current)
 **********************************************************************************************************************************

        UCCSD(T)        RHF-SCF 
   -268.13349331   -267.26538494
 **********************************************************************************************************************************
 Variable memory released
