
 Primary working directories    : /tmp/320938.422.gen6.q
 Secondary working directories  : /tmp/320938.422.gen6.q
 Wavefunction directory         : /home/vulcan/mel64643/wfu/
 Main file repository           : /tmp/320938.422.gen6.q/

 ARCHNAME  : Linux/x86_64
 FC        : /opt/intel/compilers_and_libraries_2016.1.150/linux/bin/intel64/ifort
 FCVERSION : 16.0.1
 BLASLIB   : -mkl
 id        : ccgc

 Nodes     nprocs
 n085         3
 Number of processes for MPI-2 version of Molpro:   nprocs(total)=    4   nprocs(compute)=    3   nprocs(helper)=    1
 ga_uses_ma=false, calling ma_init with nominal heap.
 GA-space will be limited to   8.0 MW (determined by -G option)

 Using customized tuning parameters: mindgm=10; mindgv=16; mindgc=4; mindgr=1; noblas=0; mincuda=1000; minvec=7
 default implementation of scratch files=sf  

 ***,Frequencies for min3
 memory,1000,m
 gthresh,energy=1.0d-10,orbital=1.0d-10,oneint=1.0d-16,twoint=1.0d-16,optgrad=1.0d-6,compress=1.0d-13
 geomtyp=xyz
 
  geometry = {
  12
  arbitrary comment
     C    1.776964391707    0.711398808326   -0.047331391796
     C    0.491811976407   -0.059992870174   -0.196493901896
     C    0.450332819107   -1.536294019674    0.101417522804
     O   -0.560767745493    0.727234937526    0.254453964104
     O   -1.837840335593    0.092269037726   -0.120531795196
     H    2.585373063107    0.211465914126   -0.611440883996
     H    1.660426393907    1.742887987326   -0.426532369096
     H    2.095123485707    0.774048097326    1.018846295162
     H   -0.505234513190   -1.982773635714   -0.219340973815
     H    1.281320661303   -2.048068022004   -0.418036500466
     H    0.564031874926   -1.719119521292    1.195198666860
     H   -1.989357357311    0.551647184914   -0.968511308919
  }
 
 basis=cc-pvdz
 {rhf;maxit,200}
 {uccsd(t);maxit,200}

 Variables initialized (661), CPU time= 0.00 sec
 Commands  initialized (458), CPU time= 0.01 sec, 486 directives.
 Default parameters read. Elapsed time= 0.07 sec

 Checking input...
 Passed
1


                                         ***  PROGRAM SYSTEM MOLPRO  ***
                         Copyright, University College Cardiff Consultants Limited, 2008

                                    Version 2010.1 linked May 16 2016 07:17:05


 **********************************************************************************************************************************
 LABEL *   Frequencies for min3                                                          
 Linux-4.4.3/n085(x86_64) 64 bit mpp version                                             DATE: 07-Mar-20          TIME: 03:26:50  
 **********************************************************************************************************************************

 SHA1:             9e8077add272b0f3cad6f7df79ec5211205f459d
 **********************************************************************************************************************************

 THRESHOLDS:

 ZERO    =  1.00D-12  ONEINT  =  1.00D-16  TWOINT  =  1.00D-16  PREFAC  =  1.00D-14  LOCALI  =  1.00D-09  EORDER  =  1.00D-04
 ENERGY  =  1.00D-10  ETEST   =  0.00D+00  EDENS   =  0.00D+00  THRDEDEF=  1.00D-06  GRADIENT=  1.00D-02  STEP    =  1.00D-03
 ORBITAL =  1.00D-10  CIVEC   =  1.00D-05  COEFF   =  1.00D-04  PRINTCI =  5.00D-02  PUNCHCI =  9.90D+01  OPTGRAD =  1.00D-06
 OPTENERG=  1.00D-06  OPTSTEP =  3.00D-04  THRGRAD =  1.00D-10  COMPRESS=  1.00D-13  VARMIN  =  1.00D-07  VARMAX  =  1.00D-03
 THRDOUB =  0.00D+00  THRDIV  =  1.00D-05  THRRED  =  1.00D-07  THRPSP  =  1.00D+00  THRDC   =  1.00D-10  THRCS   =  1.00D-10
 THRNRM  =  1.00D-08  THREQ   =  0.00D+00  THRDE   =  1.00D+00  THRREF  =  1.00D-05  SPARFAC =  1.00D+00  THRDLP  =  1.00D-07
 THRDIA  =  1.00D-10  THRDLS  =  1.00D-07  THRGPS  =  0.00D+00  THRKEX  =  0.00D+00  THRDIS  =  2.00D-01  THRVAR  =  1.00D-10
 THRLOC  =  1.00D-06  THRGAP  =  1.00D-06  THRLOCT = -1.00D+00  THRGAPT = -1.00D+00  THRORB  =  1.00D-06  THRMLTP =  0.00D+00
 THRCPQCI=  1.00D-10  KEXTA   =  0.00D+00  THRCOARS=  0.00D+00  SYMTOL  =  1.00D-06  GRADTOL =  1.00D-06  THROVL  =  1.00D-08
 THRORTH =  1.00D-08  GRID    =  1.00D-06  GRIDMAX =  1.00D-03  DTMAX   =  0.00D+00

 SETTING GEOMTYP        =    XYZ

 Variable memory set to 1000000000 words,  buffer space   230000 words

 SETTING BASIS          =    CC-PVDZ


 Recomputing integrals since basis changed


 Using spherical harmonics

 Library entry C      S cc-pVDZ              selected for orbital group  1
 Library entry C      P cc-pVDZ              selected for orbital group  1
 Library entry C      D cc-pVDZ              selected for orbital group  1
 Library entry O      S cc-pVDZ              selected for orbital group  2
 Library entry O      P cc-pVDZ              selected for orbital group  2
 Library entry O      D cc-pVDZ              selected for orbital group  2
 Library entry H      S cc-pVDZ              selected for orbital group  3
 Library entry H      P cc-pVDZ              selected for orbital group  3

1PROGRAM * SEWARD (Integral evaluation for generally contracted gaussian basis sets)     Author: Roland Lindh, 1990

 Geometry written to block  1 of record 700


 Point group  C1  



 ATOMIC COORDINATES

 NR  ATOM    CHARGE       X              Y              Z

   1  C       6.00    3.357976046    1.344348918   -0.089443368
   2  C       6.00    0.929389944   -0.113370094   -0.371319661
   3  C       6.00    0.851005696   -2.903174955    0.191651343
   4  O       8.00   -1.059697462    1.374274865    0.480848305
   5  O       8.00   -3.473014908    0.174363212   -0.227772083
   6  H       1.00    4.885647037    0.399612664   -1.155455816
   7  H       1.00    3.137751146    3.293580974   -0.806029364
   8  H       1.00    3.959209599    1.462738916    1.925340468
   9  H       1.00   -0.954754862   -3.746899152   -0.414494370
  10  H       1.00    2.421345136   -3.870287660   -0.789974499
  11  H       1.00    1.065865773   -3.248665082    2.258598153
  12  H       1.00   -3.759340583    1.042462101   -1.830221129

 Bond lengths in Bohr (Angstrom)

 1-2  2.846476668  1-6  2.088704811  1-7  2.088420481  1-8  2.105908802  2-3  2.847119878
     ( 1.506290578)     ( 1.105294982)     ( 1.105144521)     ( 1.114398942)     ( 1.506630951)

  2- 4  2.625975338   3- 9  2.083279708   3-10  2.089225272   3-11  2.106608031   4- 5  2.786760112
       ( 1.389606300)       ( 1.102424141)       ( 1.105570398)       ( 1.114768958)       ( 1.474689938)

  5-12  1.844836312
       ( 0.976245331)

 Bond angles

  1-2-3  120.37866573   1-2-4  108.90555081   2-1-6  109.98947225   2-1-7  110.73429490

  2- 1- 8  111.53785296   2- 3- 9  111.29541188   2- 3-10  109.87611134   2- 3-11  110.60383501

  2- 4- 5  109.23946113   3- 2- 4  118.03986083   4- 5-12   98.78153794   6- 1- 7  108.91518355

  6- 1- 8  107.75221771   7- 1- 8  107.81297017   9- 3-10  109.10662938   9- 3-11  107.90653943

 10- 3-11  107.96439000

 NUCLEAR CHARGE:                   41
 NUMBER OF PRIMITIVE AOS:         184
 NUMBER OF SYMMETRY AOS:          179
 NUMBER OF CONTRACTIONS:          105   ( 105A   )
 NUMBER OF CORE ORBITALS:           5   (   5A   )
 NUMBER OF VALENCE ORBITALS:       27   (  27A   )


 NUCLEAR REPULSION ENERGY  183.20085877


 Eigenvalues of metric

         1 0.345E-02 0.435E-02 0.105E-01 0.141E-01 0.182E-01 0.214E-01 0.331E-01 0.346E-01


 Contracted 2-electron integrals neglected if value below      1.0D-16
 AO integral compression algorithm  1   Integral accuracy      1.0D-16

     127.664 MB (compressed) written to integral file ( 93.2%)

     Node minimum: 40.370 MB, node maximum: 44.040 MB


 NUMBER OF SORTED TWO-ELECTRON INTEGRALS:    5164320.     BUFFER LENGTH:  32768
 NUMBER OF SEGMENTS:   1  SEGMENT LENGTH:    5164320      RECORD LENGTH: 524288

 Memory used in sort:       5.72 MW

 SORT1 READ    17075251. AND WROTE     5135859. INTEGRALS IN     15 RECORDS. CPU TIME:     0.20 SEC, REAL TIME:     0.23 SEC
 SORT2 READ    15396523. AND WROTE    15487395. INTEGRALS IN    462 RECORDS. CPU TIME:     0.06 SEC, REAL TIME:     0.09 SEC

 Node minimum:     5160610.  Node maximum:     5164320. integrals

 OPERATOR DM      FOR CENTER  0  COORDINATES:    0.000000    0.000000    0.000000


 **********************************************************************************************************************************
 DATASETS  * FILE   NREC   LENGTH (MB)   RECORD NAMES
              1      18        3.17       500      610      700      900      950      970     1000      129      960     1100   
                                          VAR    BASINP    GEOM    SYMINP    ZMAT    AOBASIS   BASIS     P2S    ABASIS      S 
                                         1400     1410     1200     1210     1080     1600     1650     1700   
                                           T        V       H0       H01     AOSYM     SMH    MOLCAS    OPER   

 PROGRAMS   *        TOTAL       INT
 CPU TIMES  *         0.83      0.75
 REAL TIME  *         1.26 SEC
 DISK USED  *       306.31 MB      
 GA USED    *         0.00 MB       (max)       0.00 MB       (current)
 **********************************************************************************************************************************

1PROGRAM * RHF-SCF (OPEN SHELL)       Authors: W. Meyer, H.-J. Werner


 NUMBER OF ELECTRONS:      21+   20-    SPACE SYMMETRY=1    SPIN SYMMETRY: Doublet 
 CONVERGENCE THRESHOLDS:    1.00E-10 (Density)    1.00E-11 (Energy)
 MAX. NUMBER OF ITERATIONS:      200
 INTERPOLATION TYPE:            DIIS
 INTERPOLATION STEPS:              2 (START)      1 (STEP)
 LEVEL SHIFTS:                 -0.30 (CLOSED)  0.00 (OPEN) 



 Orbital guess generated from atomic densities. Full valence occupancy:   32

 Molecular orbital dump at record        2100.2

 ITERATION    DDIFF          GRAD             ENERGY        2-EL.EN.            DIPOLE MOMENTS         DIIS
    1      0.000D+00      0.000D+00      -267.17815688    555.785590    0.56839    0.05005   -0.75071    0
    2      0.000D+00      0.617D-02      -267.24880436    555.703288    0.41257   -0.13038   -0.60020    1
    3      0.926D-02      0.214D-02      -267.26097519    555.622065    0.39235   -0.05864   -0.62754    2
    4      0.336D-02      0.911D-03      -267.26457825    555.773728    0.37789   -0.09882   -0.64383    3
    5      0.186D-02      0.363D-03      -267.26514649    555.745017    0.38051   -0.09234   -0.63680    4
    6      0.792D-03      0.110D-03      -267.26522272    555.731250    0.37881   -0.09214   -0.63953    5
    7      0.277D-03      0.510D-04      -267.26524277    555.728236    0.37813   -0.09188   -0.63901    6
    8      0.143D-03      0.272D-04      -267.26524880    555.726283    0.37842   -0.09200   -0.63921    7
    9      0.922D-04      0.115D-04      -267.26524972    555.726602    0.37861   -0.09195   -0.63897    8
   10      0.365D-04      0.500D-05      -267.26524987    555.727213    0.37887   -0.09197   -0.63904    9
   11      0.146D-04      0.196D-05      -267.26524990    555.727055    0.37892   -0.09196   -0.63904    9
   12      0.650D-05      0.670D-06      -267.26524990    555.727190    0.37894   -0.09196   -0.63904    9
   13      0.227D-05      0.226D-06      -267.26524990    555.727105    0.37894   -0.09196   -0.63904    9
   14      0.632D-06      0.758D-07      -267.26524990    555.727114    0.37894   -0.09196   -0.63904    9
   15      0.193D-06      0.301D-07      -267.26524990    555.727110    0.37894   -0.09196   -0.63904    9
   16      0.826D-07      0.145D-07      -267.26524990    555.727112    0.37895   -0.09196   -0.63904    9
   17      0.375D-07      0.753D-08      -267.26524990    555.727112    0.37895   -0.09196   -0.63904    9
   18      0.223D-07      0.342D-08      -267.26524990    555.727112    0.37895   -0.09196   -0.63904    9
   19      0.115D-07      0.133D-08      -267.26524990    555.727112    0.37895   -0.09196   -0.63904    9
   20      0.444D-08      0.566D-09      -267.26524990    555.727112    0.37895   -0.09196   -0.63904    9
   21      0.165D-08      0.286D-09      -267.26524990    555.727112    0.37895   -0.09196   -0.63904    9
   22      0.753D-09      0.162D-09      -267.26524990    555.727112    0.37895   -0.09196   -0.63904    9
   23      0.447D-09      0.796D-10      -267.26524990    555.727112    0.37895   -0.09196   -0.63904    9
   24      0.264D-09      0.317D-10      -267.26524990    555.727112    0.37895   -0.09196   -0.63904    9
   25      0.932D-10      0.129D-10      -267.26524990    555.727112    0.37895   -0.09196   -0.63904    0

 Final alpha occupancy:  21
 Final beta  occupancy:  20

 !RHF STATE 1.1 Energy               -267.265249902120
 Nuclear energy                       183.20085877
 One-electron energy                 -728.32966453
 Two-electron energy                  277.86355585
 Virial quotient                       -1.00157978
 !RHF STATE 1.1 Dipole moment           0.37894547    -0.09196435    -0.63903560
 Dipole moment /Debye                   0.96312022    -0.23373477    -1.62416009

 Orbital energies:

         1.1          2.1          3.1          4.1          5.1          6.1          7.1          8.1          9.1         10.1
    -20.630457   -20.628952   -11.279271   -11.237995   -11.232301    -1.469935    -1.240391    -1.023121    -0.945209    -0.768327

        11.1         12.1         13.1         14.1         15.1         16.1         17.1         18.1         19.1         20.1
     -0.704252    -0.642955    -0.626673    -0.588585    -0.545072    -0.543318    -0.538827    -0.516831    -0.492923    -0.469748

        21.1         22.1         23.1
     -0.352266     0.181119     0.183417


 **********************************************************************************************************************************
 DATASETS  * FILE   NREC   LENGTH (MB)   RECORD NAMES
              1      18        3.17       500      610      700      900      950      970     1000      129      960     1100   
                                          VAR    BASINP    GEOM    SYMINP    ZMAT    AOBASIS   BASIS     P2S    ABASIS      S 
                                         1400     1410     1200     1210     1080     1600     1650     1700   
                                           T        V       H0       H01     AOSYM     SMH    MOLCAS    OPER   

              2       3        0.77       700     1000     2100   
                                         GEOM     BASIS     RHF  

 PROGRAMS   *        TOTAL       RHF       INT
 CPU TIMES  *         1.77      0.94      0.75
 REAL TIME  *         2.33 SEC
 DISK USED  *       322.88 MB      
 SF USED    *         0.04 MB      
 GA USED    *         0.00 MB       (max)       0.00 MB       (current)
 **********************************************************************************************************************************


1PROGRAM * CCSD (Unrestricted open-shell coupled cluster)     Authors: C. Hampel, H.-J. Werner, 1991, M. Deegan, P.J. Knowles, 1992


 Convergence thresholds:  THRVAR = 1.00D-08  THRDEN = 1.00D-10

 CCSD(T)     terms to be evaluated (factor= 1.000)


 Number of core orbitals:           5 (   5 )
 Number of closed-shell orbitals:  15 (  15 )
 Number of active  orbitals:        1 (   1 )
 Number of external orbitals:      84 (  84 )

 Memory could be reduced to 24.91 Mwords without degradation in triples

 Number of N-1 electron functions:              31
 Number of N-2 electron functions:             465
 Number of singly external CSFs:              2635
 Number of doubly external CSFs:           2537250
 Total number of CSFs:                     2539885

 Molecular orbitals read from record     2100.2  Type=RHF/CANONICAL (state 1.1)

 Integral transformation finished. Total CPU:   0.93 sec, npass=  1  Memory used:  12.63 MW

 Starting RMP2 calculation

 ITER.      SQ.NORM     CORR.ENERGY   TOTAL ENERGY   ENERGY CHANGE        DEN1      VAR(S)    VAR(P)  DIIS     TIME
   1      1.24313449    -0.78649509  -268.05174499    -0.78649509    -0.00305185  0.20D-04  0.11D-02  1  1     1.25
   2      1.24577848    -0.78978636  -268.05503626    -0.00329127    -0.00000475  0.54D-06  0.19D-05  2  2     1.52
   3      1.24584412    -0.78982847  -268.05507838    -0.00004211    -0.00000003  0.16D-07  0.68D-08  3  3     1.82
   4      1.24584508    -0.78982848  -268.05507838    -0.00000000    -0.00000000  0.27D-09  0.38D-10  4  4     2.14
   5      1.24584516    -0.78982851  -268.05507841    -0.00000003    -0.00000000  0.26D-11  0.66D-12  5  5     2.48
   6      1.24584517    -0.78982851  -268.05507842    -0.00000001    -0.00000000  0.28D-13  0.87D-14  6  6     2.84
   7      1.24584517    -0.78982851  -268.05507842     0.00000000    -0.00000000  0.47D-15  0.12D-15  6  1     3.21
   8      1.24584517    -0.78982851  -268.05507842     0.00000000    -0.00000000  0.60D-17  0.13D-17  6  2     3.57

 Norm of t1 vector:      0.03894097      S-energy:    -0.00227204      T1 diagnostic:  0.00055066
 Norm of t2 vector:      0.49429624      P-energy:    -0.78755647
                                         Alpha-Beta:  -0.59351609
                                         Alpha-Alpha: -0.10095171
                                         Beta-Beta:   -0.09308867

 Spin contamination <S**2-Sz**2-Sz>     0.00104053
  Reference energy                   -267.265249902119
  RHF-RMP2 correlation energy          -0.789828514614
 !RHF-RMP2 energy                    -268.055078416733

 Starting UCCSD calculation

 ITER.      SQ.NORM     CORR.ENERGY   TOTAL ENERGY   ENERGY CHANGE        DEN1      VAR(S)    VAR(P)  DIIS     TIME
   1      1.26290977    -0.80914860  -268.07439850    -0.80914860    -0.02517098  0.38D-02  0.59D-02  1  1     9.81
   2      1.29171245    -0.83657397  -268.10182387    -0.02742537    -0.00201380  0.22D-03  0.66D-03  2  2    16.03
   3      1.30166939    -0.84107831  -268.10632821    -0.00450434    -0.00032504  0.19D-03  0.56D-04  3  3    22.27
   4      1.30659005    -0.84255754  -268.10780744    -0.00147923    -0.00007216  0.43D-04  0.14D-04  4  4    28.53
   5      1.30932251    -0.84294603  -268.10819593    -0.00038849    -0.00002370  0.19D-04  0.32D-05  5  5    34.84
   6      1.31126351    -0.84315067  -268.10840058    -0.00020465    -0.00000647  0.42D-05  0.12D-05  6  6    41.24
   7      1.31221396    -0.84320952  -268.10845942    -0.00005885    -0.00000208  0.14D-05  0.37D-06  6  2    47.56
   8      1.31265613    -0.84325225  -268.10850215    -0.00004273    -0.00000065  0.45D-06  0.11D-06  6  1    53.86
   9      1.31284165    -0.84325685  -268.10850675    -0.00000460    -0.00000022  0.15D-06  0.35D-07  6  4    60.17
  10      1.31290498    -0.84325979  -268.10850969    -0.00000295    -0.00000005  0.35D-07  0.95D-08  6  3    66.48
  11      1.31293446    -0.84325852  -268.10850842     0.00000127    -0.00000002  0.13D-07  0.28D-08  6  5    72.76
  12      1.31294483    -0.84325825  -268.10850816     0.00000027    -0.00000000  0.26D-08  0.95D-09  6  6    78.86
  13      1.31294368    -0.84325734  -268.10850724     0.00000092    -0.00000000  0.96D-09  0.29D-09  6  2    84.62
  14      1.31293847    -0.84325649  -268.10850639     0.00000085    -0.00000000  0.21D-09  0.68D-10  6  1    90.40
  15      1.31293439    -0.84325590  -268.10850581     0.00000059    -0.00000000  0.78D-10  0.19D-10  6  4    96.16
  16      1.31293120    -0.84325552  -268.10850542     0.00000038    -0.00000000  0.28D-10  0.63D-11  6  3   101.94
  17      1.31292900    -0.84325528  -268.10850518     0.00000024    -0.00000000  0.10D-10  0.24D-11  6  5   107.70
  18      1.31292809    -0.84325522  -268.10850512     0.00000006    -0.00000000  0.41D-11  0.87D-12  6  6   113.38
  19      1.31292748    -0.84325519  -268.10850509     0.00000003    -0.00000000  0.16D-11  0.37D-12  6  2   118.20
  20      1.31292716    -0.84325518  -268.10850508     0.00000001    -0.00000000  0.60D-12  0.13D-12  6  1   123.04
  21      1.31292700    -0.84325516  -268.10850507     0.00000001    -0.00000000  0.28D-12  0.58D-13  6  4   127.86
  22      1.31292688    -0.84325516  -268.10850506     0.00000001    -0.00000000  0.74D-13  0.21D-13  6  3   132.69
  23      1.31292682    -0.84325515  -268.10850506     0.00000000    -0.00000000  0.22D-13  0.63D-14  6  5   137.52
  24      1.31292681    -0.84325515  -268.10850506    -0.00000000    -0.00000000  0.68D-14  0.23D-14  6  6   142.35
  25      1.31292681    -0.84325516  -268.10850506    -0.00000000    -0.00000000  0.21D-14  0.53D-15  6  2   147.19
  26      1.31292682    -0.84325516  -268.10850506    -0.00000000    -0.00000000  0.77D-15  0.15D-15  6  1   152.02
  27      1.31292683    -0.84325516  -268.10850506    -0.00000000    -0.00000000  0.20D-15  0.63D-16  6  3   156.87
  28      1.31292684    -0.84325516  -268.10850506    -0.00000000    -0.00000000  0.30D-16  0.11D-16  6  4   161.70
  29      1.31292684    -0.84325516  -268.10850506    -0.00000000    -0.00000000  0.71D-17  0.30D-17  6  5   166.53
  30      1.31292684    -0.84325516  -268.10850506    -0.00000000    -0.00000000  0.15D-17  0.54D-18  6  6   171.36
  31      1.31292684    -0.84325516  -268.10850506    -0.00000000    -0.00000000  0.36D-18  0.11D-18  6  2   176.19

 Norm of t1 vector:      0.13877961      S-energy:    -0.00282197      T1 diagnostic:  0.01617677
                                                                       D1 diagnostic:  0.06282643
 Norm of t2 vector:      0.54191056      P-energy:    -0.84043318
                                         Alpha-Beta:  -0.66498816
                                         Alpha-Alpha: -0.09147478
                                         Beta-Beta:   -0.08397025

 Spin contamination <S**2-Sz**2-Sz>     0.00217279

 Memory could be reduced to 28.85 Mwords without degradation in triples
 

 RESULTS
 =======

  Reference energy                   -267.265249902119
  UCCSD singles energy                 -0.002821973918
  UCCSD pair energy                    -0.840433183543
  UCCSD correlation energy             -0.843255157461
  Triples (T) contribution             -0.024988282536
  Total correlation energy             -0.868243439997
 
  RHF-UCCSD energy                   -268.108505059580
  RHF-UCCSD[T] energy                -268.134830489263
  RHF-UCCSD-T energy                 -268.133071322449
 !RHF-UCCSD(T) energy                -268.133493342116

 Program statistics:

 Available memory in ccsd:               999997692
 Min. memory needed in ccsd:               7337057
 Max. memory used in ccsd:                10523002
 Max. memory used in cckext:              10867977 (31 integral passes)
 Max. memory used in cckint:              12633073 ( 1 integral passes)



 **********************************************************************************************************************************
 DATASETS  * FILE   NREC   LENGTH (MB)   RECORD NAMES
              1      18        3.17       500      610      700      900      950      970     1000      129      960     1100   
                                          VAR    BASINP    GEOM    SYMINP    ZMAT    AOBASIS   BASIS     P2S    ABASIS      S 
                                         1400     1410     1200     1210     1080     1600     1650     1700   
                                           T        V       H0       H01     AOSYM     SMH    MOLCAS    OPER   

              2       3        0.77       700     1000     2100   
                                         GEOM     BASIS     RHF  

 PROGRAMS   *        TOTAL  UCCSD(T)       RHF       INT
 CPU TIMES  *       216.74    214.96      0.94      0.75
 REAL TIME  *       227.36 SEC
 DISK USED  *         1.29 GB      
 SF USED    *       553.73 MB      
 GA USED    *         0.00 MB       (max)       0.00 MB       (current)
 **********************************************************************************************************************************

        UCCSD(T)        RHF-SCF 
   -268.13349334   -267.26524990
 **********************************************************************************************************************************
 Variable memory released
