    -----------------------------------------------------------------------
          Psi4: An Open-Source Ab Initio Electronic Structure Package
                              Psi4 1.0rc90 Driver

                          Git: Rev {master} 87fd1c8 dirty

    J. M. Turney, A. C. Simmonett, R. M. Parrish, E. G. Hohenstein,
    F. A. Evangelista, J. T. Fermann, B. J. Mintz, L. A. Burns, J. J. Wilke,
    M. L. Abrams, N. J. Russ, M. L. Leininger, C. L. Janssen, E. T. Seidl,
    W. D. Allen, H. F. Schaefer, R. A. King, E. F. Valeev, C. D. Sherrill,
    and T. D. Crawford, WIREs Comput. Mol. Sci. 2, 556-565 (2012)
    (doi: 10.1002/wcms.93)

                         Additional Contributions by
    A. E. DePrince, U. Bozkaya, A. Yu. Sokolov, D. G. A. Smith, R. Di Remigio,
    R. M. Richard, J. F. Gonthier, H. R. McAlexander, M. Saitow, and
    B. P. Pritchard
    -----------------------------------------------------------------------


    Psi4 started on: Thu Jun 16 13:52:28 2016

    Process ID:   3948
    PSI4DATADIR: /home/avcopan/Documents/code/github/psi4/share
    Memory level set to 256.000 MB

  ==> Input File <==

--------------------------------------------------------------------------
memory 250 mb

molecule {
  O    0.000000000000    0.000000000000   -0.072225220186
  H    0.000000000000   -0.756052211872    0.573133328451
  H   -0.000000000000    0.756052211872    0.573133328451
}

set basis sto-3g
energy('scf')
--------------------------------------------------------------------------

  Memory set to 250.000 MiB by Python script.
    There are an even number of electrons - assuming singlet.
    Specify the multiplicity in the molecule input block.


*** tstart() called on knut
*** at Thu Jun 16 13:52:29 2016


         ---------------------------------------------------------
                                   SCF
            by Justin Turney, Rob Parrish, and Andy Simmonett
                              RHF Reference
                        1 Threads,    250 MiB Core
         ---------------------------------------------------------

  ==> Geometry <==

    Molecular point group: c2v
    Full point group: C2v

    Geometry (in Angstrom), charge = 0, multiplicity = 1:

       Center              X                  Y                   Z               Mass       
    ------------   -----------------  -----------------  -----------------  -----------------
           O          0.000000000000     0.000000000000    -0.072225220186    15.994914619560
           H          0.000000000000    -0.756052211872     0.573133328451     1.007825032070
           H         -0.000000000000     0.756052211872     0.573133328451     1.007825032070

  Running in c2v symmetry.

  Rotational constants: A =     22.61125  B =     14.63113  C =      8.88311 [cm^-1]
  Rotational constants: A = 677868.30495  B = 438630.15243  C = 266308.90169 [MHz]
  Nuclear repulsion =    8.867616670087536

  Charge       = 0
  Multiplicity = 1
  Electrons    = 10
  Nalpha       = 5
  Nbeta        = 5

  ==> Algorithm <==

  SCF Algorithm Type is DF.
  DIIS enabled.
  MOM disabled.
  Fractional occupation disabled.
  Guess Type is CORE.
  Energy threshold   = 1.00e-06
  Density threshold  = 1.00e-06
  Integral threshold = 0.00e+00

  ==> Primary Basis <==

  Basis Set: STO-3G
    Number of shells: 5
    Number of basis function: 7
    Number of Cartesian functions: 7
    Spherical Harmonics?: true
    Max angular momentum: 1

  ==> Pre-Iterations <==

   -------------------------------------------------------
    Irrep   Nso     Nmo     Nalpha   Nbeta   Ndocc  Nsocc
   -------------------------------------------------------
     A1         4       4       0       0       0       0
     A2         0       0       0       0       0       0
     B1         1       1       0       0       0       0
     B2         2       2       0       0       0       0
   -------------------------------------------------------
    Total       7       7       5       5       5       0
   -------------------------------------------------------

  ==> Integral Setup <==

  ==> DFJK: Density-Fitted J/K Matrices <==

    J tasked:                  Yes
    K tasked:                  Yes
    wK tasked:                  No
    OpenMP threads:              1
    Integrals threads:           1
    Memory (MB):               178
    Algorithm:                Core
    Integral Cache:           NONE
    Schwarz Cutoff:          1E-12
    Fitting Condition:       1E-12

   => Auxiliary Basis Set <=

  Basis Set: 
    Number of shells: 30
    Number of basis function: 84
    Number of Cartesian functions: 96
    Spherical Harmonics?: true
    Max angular momentum: 3

  Minimum eigenvalue in the overlap matrix is 3.6624793350E-01.
  Using Symmetric Orthogonalization.
  SCF Guess: Core (One-Electron) Hamiltonian.

  ==> Iterations <==

                           Total Energy        Delta E     RMS |[F,P]|

   @DF-RHF iter   1:   -73.24175828994024   -7.32418e+01   2.16047e-01 
   @DF-RHF iter   2:   -74.92749195007451   -1.68573e+00   4.69931e-02 DIIS
   @DF-RHF iter   3:   -74.96484213796478   -3.73502e-02   8.11688e-03 DIIS
   @DF-RHF iter   4:   -74.96623730233134   -1.39516e-03   1.41391e-03 DIIS
   @DF-RHF iter   5:   -74.96629411863793   -5.68163e-05   3.97832e-04 DIIS
   @DF-RHF iter   6:   -74.96629926163439   -5.14300e-06   3.67831e-05 DIIS
   @DF-RHF iter   7:   -74.96629930186512   -4.02307e-08   1.98130e-08 DIIS

  ==> Post-Iterations <==

    Orbital Energies (a.u.)
    -----------------------

    Doubly Occupied:                                                      

       1A1   -20.253877     2A1    -1.256410     1B2    -0.589817  
       3A1    -0.461450     1B1    -0.393028  

    Virtual:                                                              

       4A1     0.579003     2B2     0.685036  

    Final Occupation by Irrep:
             A1    A2    B1    B2 
    DOCC [     3,    0,    1,    1 ]

  Energy converged.

  @DF-RHF Final Energy:   -74.96629930186512

   => Energetics <=

    Nuclear Repulsion Energy =              8.8676166700875356
    One-Electron Energy =                -121.7586681409375302
    Two-Electron Energy =                  37.9247521689848810
    DFT Exchange-Correlation Energy =       0.0000000000000000
    Empirical Dispersion Energy =           0.0000000000000000
    PCM Polarization Energy =               0.0000000000000000
    EFP Energy =                            0.0000000000000000
    Total Energy =                        -74.9662993018651065


  Saving occupied orbitals to File 180.

*** tstop() called on knut at Thu Jun 16 13:52:29 2016
Module time:
	user time   =       0.11 seconds =       0.00 minutes
	system time =       0.15 seconds =       0.00 minutes
	total time  =          0 seconds =       0.00 minutes
Total time:
	user time   =       0.11 seconds =       0.00 minutes
	system time =       0.15 seconds =       0.00 minutes
	total time  =          0 seconds =       0.00 minutes


Properties will be evaluated at   0.000000,   0.000000,   0.000000 Bohr

Properties computed using the SCF density matrix

  Nuclear Dipole Moment: (a.u.)
     X:     0.0000      Y:     0.0000      Z:     1.0742

  Electronic Dipole Moment: (a.u.)
     X:     0.0000      Y:     0.0000      Z:    -0.4022

  Dipole Moment: (a.u.)
     X:     0.0000      Y:     0.0000      Z:     0.6720     Total:     0.6720

  Dipole Moment: (Debye)
     X:     0.0000      Y:     0.0000      Z:     1.7082     Total:     1.7082


*** Psi4 exiting successfully. Buy a developer a beer!
