
 Primary working directories    : /tmp/320938.70.gen6.q
 Secondary working directories  : /tmp/320938.70.gen6.q
 Wavefunction directory         : /home/vulcan/mel64643/wfu/
 Main file repository           : /tmp/320938.70.gen6.q/

 ARCHNAME  : Linux/x86_64
 FC        : /opt/intel/compilers_and_libraries_2016.1.150/linux/bin/intel64/ifort
 FCVERSION : 16.0.1
 BLASLIB   : -mkl
 id        : ccgc

 Nodes     nprocs
 n081         3
 Number of processes for MPI-2 version of Molpro:   nprocs(total)=    4   nprocs(compute)=    3   nprocs(helper)=    1
 ga_uses_ma=false, calling ma_init with nominal heap.
 GA-space will be limited to   8.0 MW (determined by -G option)

 Using customized tuning parameters: mindgm=10; mindgv=16; mindgc=4; mindgr=1; noblas=0; mincuda=1000; minvec=7
 default implementation of scratch files=sf  

 ***,Frequencies for min3
 memory,1000,m
 gthresh,energy=1.0d-10,orbital=1.0d-10,oneint=1.0d-16,twoint=1.0d-16,optgrad=1.0d-6,compress=1.0d-13
 geomtyp=xyz
 
  geometry = {
  12
  arbitrary comment
     C    1.776964391707    0.711398808326   -0.047331391796
     C    0.491811976407   -0.059992870174   -0.196493901896
     C    0.450332819107   -1.536294019674    0.101417522804
     O   -0.560767745493    0.727234937526    0.254453964104
     O   -1.837840335593    0.092269037726   -0.120531795196
     H    2.585373063107    0.211465914126   -0.611440883996
     H    1.660426393907    1.742887987326   -0.426532369096
     H    2.097119204326    0.774552271997    1.018306783219
     H   -0.505104555209   -1.983005164565   -0.220424046604
     H    1.281729459198   -2.046539627886   -0.418818707275
     H    0.560601611663   -1.719069377984    1.196467132436
     H   -1.988461568542    0.549796001667   -0.967374982954
  }
 
 basis=cc-pvdz
 {rhf;maxit,200}
 {uccsd(t);maxit,200}

 Variables initialized (661), CPU time= 0.00 sec
 Commands  initialized (458), CPU time= 0.00 sec, 486 directives.
 Default parameters read. Elapsed time= 0.05 sec

 Checking input...
 Passed
1


                                         ***  PROGRAM SYSTEM MOLPRO  ***
                         Copyright, University College Cardiff Consultants Limited, 2008

                                    Version 2010.1 linked May 16 2016 07:17:05


 **********************************************************************************************************************************
 LABEL *   Frequencies for min3                                                          
 Linux-4.4.3/n081(x86_64) 64 bit mpp version                                             DATE: 07-Mar-20          TIME: 01:21:50  
 **********************************************************************************************************************************

 SHA1:             9e8077add272b0f3cad6f7df79ec5211205f459d
 **********************************************************************************************************************************

 THRESHOLDS:

 ZERO    =  1.00D-12  ONEINT  =  1.00D-16  TWOINT  =  1.00D-16  PREFAC  =  1.00D-14  LOCALI  =  1.00D-09  EORDER  =  1.00D-04
 ENERGY  =  1.00D-10  ETEST   =  0.00D+00  EDENS   =  0.00D+00  THRDEDEF=  1.00D-06  GRADIENT=  1.00D-02  STEP    =  1.00D-03
 ORBITAL =  1.00D-10  CIVEC   =  1.00D-05  COEFF   =  1.00D-04  PRINTCI =  5.00D-02  PUNCHCI =  9.90D+01  OPTGRAD =  1.00D-06
 OPTENERG=  1.00D-06  OPTSTEP =  3.00D-04  THRGRAD =  1.00D-10  COMPRESS=  1.00D-13  VARMIN  =  1.00D-07  VARMAX  =  1.00D-03
 THRDOUB =  0.00D+00  THRDIV  =  1.00D-05  THRRED  =  1.00D-07  THRPSP  =  1.00D+00  THRDC   =  1.00D-10  THRCS   =  1.00D-10
 THRNRM  =  1.00D-08  THREQ   =  0.00D+00  THRDE   =  1.00D+00  THRREF  =  1.00D-05  SPARFAC =  1.00D+00  THRDLP  =  1.00D-07
 THRDIA  =  1.00D-10  THRDLS  =  1.00D-07  THRGPS  =  0.00D+00  THRKEX  =  0.00D+00  THRDIS  =  2.00D-01  THRVAR  =  1.00D-10
 THRLOC  =  1.00D-06  THRGAP  =  1.00D-06  THRLOCT = -1.00D+00  THRGAPT = -1.00D+00  THRORB  =  1.00D-06  THRMLTP =  0.00D+00
 THRCPQCI=  1.00D-10  KEXTA   =  0.00D+00  THRCOARS=  0.00D+00  SYMTOL  =  1.00D-06  GRADTOL =  1.00D-06  THROVL  =  1.00D-08
 THRORTH =  1.00D-08  GRID    =  1.00D-06  GRIDMAX =  1.00D-03  DTMAX   =  0.00D+00

 SETTING GEOMTYP        =    XYZ

 Variable memory set to 1000000000 words,  buffer space   230000 words

 SETTING BASIS          =    CC-PVDZ


 Recomputing integrals since basis changed


 Using spherical harmonics

 Library entry C      S cc-pVDZ              selected for orbital group  1
 Library entry C      P cc-pVDZ              selected for orbital group  1
 Library entry C      D cc-pVDZ              selected for orbital group  1
 Library entry O      S cc-pVDZ              selected for orbital group  2
 Library entry O      P cc-pVDZ              selected for orbital group  2
 Library entry O      D cc-pVDZ              selected for orbital group  2
 Library entry H      S cc-pVDZ              selected for orbital group  3
 Library entry H      P cc-pVDZ              selected for orbital group  3

1PROGRAM * SEWARD (Integral evaluation for generally contracted gaussian basis sets)     Author: Roland Lindh, 1990

 Geometry written to block  1 of record 700


 Point group  C1  



 ATOMIC COORDINATES

 NR  ATOM    CHARGE       X              Y              Z

   1  C       6.00    3.357976046    1.344348918   -0.089443368
   2  C       6.00    0.929389944   -0.113370094   -0.371319661
   3  C       6.00    0.851005696   -2.903174955    0.191651343
   4  O       8.00   -1.059697462    1.374274865    0.480848305
   5  O       8.00   -3.473014908    0.174363212   -0.227772083
   6  H       1.00    4.885647037    0.399612664   -1.155455816
   7  H       1.00    3.137751146    3.293580974   -0.806029364
   8  H       1.00    3.962980961    1.463691669    1.924320938
   9  H       1.00   -0.954509277   -3.747336678   -0.416541081
  10  H       1.00    2.422117652   -3.867399414   -0.791452655
  11  H       1.00    1.059383515   -3.248570325    2.260995206
  12  H       1.00   -3.757647787    1.038963871   -1.828073784

 Bond lengths in Bohr (Angstrom)

 1-2  2.846476668  1-6  2.088704811  1-7  2.088420481  1-8  2.106067501  2-3  2.847119878
     ( 1.506290578)     ( 1.105294982)     ( 1.105144521)     ( 1.114482922)     ( 1.506630951)

  2- 4  2.625975338   3- 9  2.083840531   3-10  2.089166116   3-11  2.108293931   4- 5  2.786760112
       ( 1.389606300)       ( 1.102720916)       ( 1.105539094)       ( 1.115661098)       ( 1.474689938)

  5-12  1.841063745
       ( 0.974248974)

 Bond angles

  1-2-3  120.37866573   1-2-4  108.90555081   2-1-6  109.98947225   2-1-7  110.73429490

  2- 1- 8  111.64161223   2- 3- 9  111.28991056   2- 3-10  109.78504754   2- 3-11  110.60285705

  2- 4- 5  109.23946113   3- 2- 4  118.03986083   4- 5-12   98.78374923   6- 1- 7  108.91518355

  6- 1- 8  107.66950754   7- 1- 8  107.78754214   9- 3-10  109.10346583   9- 3-11  107.80264382

 10- 3-11  108.17608928

 NUCLEAR CHARGE:                   41
 NUMBER OF PRIMITIVE AOS:         184
 NUMBER OF SYMMETRY AOS:          179
 NUMBER OF CONTRACTIONS:          105   ( 105A   )
 NUMBER OF CORE ORBITALS:           5   (   5A   )
 NUMBER OF VALENCE ORBITALS:       27   (  27A   )


 NUCLEAR REPULSION ENERGY  183.20798002


 Eigenvalues of metric

         1 0.345E-02 0.435E-02 0.105E-01 0.141E-01 0.182E-01 0.214E-01 0.331E-01 0.346E-01


 Contracted 2-electron integrals neglected if value below      1.0D-16
 AO integral compression algorithm  1   Integral accuracy      1.0D-16

     127.402 MB (compressed) written to integral file ( 93.4%)

     Node minimum: 40.632 MB, node maximum: 43.516 MB


 NUMBER OF SORTED TWO-ELECTRON INTEGRALS:    5164320.     BUFFER LENGTH:  32768
 NUMBER OF SEGMENTS:   1  SEGMENT LENGTH:    5164320      RECORD LENGTH: 524288

 Memory used in sort:       5.72 MW

 SORT1 READ    17075251. AND WROTE     5135861. INTEGRALS IN     15 RECORDS. CPU TIME:     0.20 SEC, REAL TIME:     0.23 SEC
 SORT2 READ    15396519. AND WROTE    15487395. INTEGRALS IN    465 RECORDS. CPU TIME:     0.05 SEC, REAL TIME:     0.09 SEC

 Node minimum:     5160610.  Node maximum:     5164320. integrals

 OPERATOR DM      FOR CENTER  0  COORDINATES:    0.000000    0.000000    0.000000


 **********************************************************************************************************************************
 DATASETS  * FILE   NREC   LENGTH (MB)   RECORD NAMES
              1      18        3.17       500      610      700      900      950      970     1000      129      960     1100   
                                          VAR    BASINP    GEOM    SYMINP    ZMAT    AOBASIS   BASIS     P2S    ABASIS      S 
                                         1400     1410     1200     1210     1080     1600     1650     1700   
                                           T        V       H0       H01     AOSYM     SMH    MOLCAS    OPER   

 PROGRAMS   *        TOTAL       INT
 CPU TIMES  *         0.80      0.76
 REAL TIME  *         1.21 SEC
 DISK USED  *       305.79 MB      
 GA USED    *         0.00 MB       (max)       0.00 MB       (current)
 **********************************************************************************************************************************

1PROGRAM * RHF-SCF (OPEN SHELL)       Authors: W. Meyer, H.-J. Werner


 NUMBER OF ELECTRONS:      21+   20-    SPACE SYMMETRY=1    SPIN SYMMETRY: Doublet 
 CONVERGENCE THRESHOLDS:    1.00E-10 (Density)    1.00E-11 (Energy)
 MAX. NUMBER OF ITERATIONS:      200
 INTERPOLATION TYPE:            DIIS
 INTERPOLATION STEPS:              2 (START)      1 (STEP)
 LEVEL SHIFTS:                 -0.30 (CLOSED)  0.00 (OPEN) 



 Orbital guess generated from atomic densities. Full valence occupancy:   32

 Molecular orbital dump at record        2100.2

 ITERATION    DDIFF          GRAD             ENERGY        2-EL.EN.            DIPOLE MOMENTS         DIIS
    1      0.000D+00      0.000D+00      -267.17821324    555.790391    0.57001    0.04865   -0.74955    0
    2      0.000D+00      0.617D-02      -267.24886153    555.712122    0.41373   -0.13147   -0.59945    1
    3      0.927D-02      0.214D-02      -267.26103794    555.630097    0.39336   -0.05956   -0.62701    2
    4      0.336D-02      0.912D-03      -267.26464589    555.782283    0.37874   -0.09968   -0.64351    3
    5      0.186D-02      0.363D-03      -267.26521477    555.753652    0.38127   -0.09319   -0.63654    4
    6      0.792D-03      0.110D-03      -267.26529111    555.739917    0.37953   -0.09299   -0.63929    5
    7      0.277D-03      0.510D-04      -267.26531119    555.736902    0.37881   -0.09273   -0.63879    6
    8      0.143D-03      0.272D-04      -267.26531723    555.734960    0.37908   -0.09284   -0.63900    7
    9      0.922D-04      0.115D-04      -267.26531815    555.735271    0.37926   -0.09280   -0.63876    8
   10      0.365D-04      0.501D-05      -267.26531830    555.735882    0.37952   -0.09281   -0.63883    9
   11      0.147D-04      0.196D-05      -267.26531833    555.735724    0.37957   -0.09280   -0.63883    9
   12      0.651D-05      0.670D-06      -267.26531833    555.735859    0.37959   -0.09280   -0.63883    9
   13      0.227D-05      0.226D-06      -267.26531833    555.735774    0.37959   -0.09280   -0.63882    9
   14      0.631D-06      0.756D-07      -267.26531833    555.735783    0.37959   -0.09281   -0.63882    9
   15      0.192D-06      0.299D-07      -267.26531833    555.735779    0.37960   -0.09281   -0.63882    9
   16      0.822D-07      0.144D-07      -267.26531833    555.735780    0.37960   -0.09281   -0.63882    9
   17      0.372D-07      0.746D-08      -267.26531833    555.735780    0.37960   -0.09281   -0.63882    9
   18      0.221D-07      0.340D-08      -267.26531833    555.735780    0.37960   -0.09281   -0.63882    9
   19      0.114D-07      0.133D-08      -267.26531833    555.735781    0.37960   -0.09281   -0.63882    9
   20      0.443D-08      0.564D-09      -267.26531833    555.735781    0.37960   -0.09281   -0.63882    9
   21      0.165D-08      0.285D-09      -267.26531833    555.735781    0.37960   -0.09281   -0.63882    9
   22      0.750D-09      0.161D-09      -267.26531833    555.735781    0.37960   -0.09281   -0.63882    9
   23      0.444D-09      0.794D-10      -267.26531833    555.735781    0.37960   -0.09281   -0.63882    9
   24      0.263D-09      0.316D-10      -267.26531833    555.735781    0.37960   -0.09281   -0.63882    9
   25      0.930D-10      0.129D-10      -267.26531833    555.735781    0.37960   -0.09281   -0.63882    0

 Final alpha occupancy:  21
 Final beta  occupancy:  20

 !RHF STATE 1.1 Energy               -267.265318332589
 Nuclear energy                       183.20798002
 One-electron energy                 -728.34118862
 Two-electron energy                  277.86789027
 Virial quotient                       -1.00157265
 !RHF STATE 1.1 Dipole moment           0.37959684    -0.09280666    -0.63882411
 Dipole moment /Debye                   0.96477574    -0.23587556    -1.62362257

 Orbital energies:

         1.1          2.1          3.1          4.1          5.1          6.1          7.1          8.1          9.1         10.1
    -20.630507   -20.628792   -11.279336   -11.238018   -11.232456    -1.470161    -1.240767    -1.023139    -0.945181    -0.768443

        11.1         12.1         13.1         14.1         15.1         16.1         17.1         18.1         19.1         20.1
     -0.704555    -0.643033    -0.626683    -0.588712    -0.544947    -0.543265    -0.538787    -0.516912    -0.493041    -0.469793

        21.1         22.1         23.1
     -0.352353     0.181262     0.183500


 **********************************************************************************************************************************
 DATASETS  * FILE   NREC   LENGTH (MB)   RECORD NAMES
              1      18        3.17       500      610      700      900      950      970     1000      129      960     1100   
                                          VAR    BASINP    GEOM    SYMINP    ZMAT    AOBASIS   BASIS     P2S    ABASIS      S 
                                         1400     1410     1200     1210     1080     1600     1650     1700   
                                           T        V       H0       H01     AOSYM     SMH    MOLCAS    OPER   

              2       3        0.77       700     1000     2100   
                                         GEOM     BASIS     RHF  

 PROGRAMS   *        TOTAL       RHF       INT
 CPU TIMES  *         1.72      0.92      0.76
 REAL TIME  *         2.28 SEC
 DISK USED  *       322.36 MB      
 SF USED    *         0.04 MB      
 GA USED    *         0.00 MB       (max)       0.00 MB       (current)
 **********************************************************************************************************************************


1PROGRAM * CCSD (Unrestricted open-shell coupled cluster)     Authors: C. Hampel, H.-J. Werner, 1991, M. Deegan, P.J. Knowles, 1992


 Convergence thresholds:  THRVAR = 1.00D-08  THRDEN = 1.00D-10

 CCSD(T)     terms to be evaluated (factor= 1.000)


 Number of core orbitals:           5 (   5 )
 Number of closed-shell orbitals:  15 (  15 )
 Number of active  orbitals:        1 (   1 )
 Number of external orbitals:      84 (  84 )

 Memory could be reduced to 24.91 Mwords without degradation in triples

 Number of N-1 electron functions:              31
 Number of N-2 electron functions:             465
 Number of singly external CSFs:              2635
 Number of doubly external CSFs:           2537250
 Total number of CSFs:                     2539885

 Molecular orbitals read from record     2100.2  Type=RHF/CANONICAL (state 1.1)

 Integral transformation finished. Total CPU:   0.71 sec, npass=  1  Memory used:  12.63 MW

 Starting RMP2 calculation

 ITER.      SQ.NORM     CORR.ENERGY   TOTAL ENERGY   ENERGY CHANGE        DEN1      VAR(S)    VAR(P)  DIIS     TIME
   1      1.24308924    -0.78642331  -268.05174164    -0.78642331    -0.00305118  0.20D-04  0.11D-02  1  1     0.95
   2      1.24573262    -0.78971386  -268.05503219    -0.00329055    -0.00000475  0.54D-06  0.19D-05  2  2     1.19
   3      1.24579830    -0.78975599  -268.05507432    -0.00004213    -0.00000003  0.16D-07  0.68D-08  3  3     1.46
   4      1.24579925    -0.78975599  -268.05507432    -0.00000000    -0.00000000  0.27D-09  0.38D-10  4  4     1.74
   5      1.24579934    -0.78975602  -268.05507436    -0.00000003    -0.00000000  0.25D-11  0.66D-12  5  5     2.05
   6      1.24579935    -0.78975603  -268.05507436    -0.00000001    -0.00000000  0.28D-13  0.87D-14  6  6     2.39
   7      1.24579935    -0.78975603  -268.05507436     0.00000000    -0.00000000  0.47D-15  0.12D-15  6  1     2.72
   8      1.24579935    -0.78975603  -268.05507436     0.00000000    -0.00000000  0.60D-17  0.13D-17  6  2     3.05

 Norm of t1 vector:      0.03894288      S-energy:    -0.00227201      T1 diagnostic:  0.00055093
 Norm of t2 vector:      0.49424974      P-energy:    -0.78748402
                                         Alpha-Beta:  -0.59346116
                                         Alpha-Alpha: -0.10094208
                                         Beta-Beta:   -0.09308078

 Spin contamination <S**2-Sz**2-Sz>     0.00104087
  Reference energy                   -267.265318332590
  RHF-RMP2 correlation energy          -0.789756030311
 !RHF-RMP2 energy                    -268.055074362901

 Starting UCCSD calculation

 ITER.      SQ.NORM     CORR.ENERGY   TOTAL ENERGY   ENERGY CHANGE        DEN1      VAR(S)    VAR(P)  DIIS     TIME
   1      1.26287482    -0.80909433  -268.07441266    -0.80909433    -0.02516501  0.38D-02  0.59D-02  1  1     7.79
   2      1.29167066    -0.83651404  -268.10183237    -0.02741971    -0.00201277  0.22D-03  0.66D-03  2  2    12.51
   3      1.30162371    -0.84101635  -268.10633468    -0.00450232    -0.00032494  0.19D-03  0.56D-04  3  3    17.27
   4      1.30654261    -0.84249496  -268.10781330    -0.00147861    -0.00007215  0.43D-04  0.14D-04  4  4    22.04
   5      1.30927529    -0.84288350  -268.10820183    -0.00038854    -0.00002368  0.19D-04  0.32D-05  5  5    26.83
   6      1.31121571    -0.84308812  -268.10840645    -0.00020462    -0.00000645  0.42D-05  0.12D-05  6  6    31.65
   7      1.31216472    -0.84314688  -268.10846522    -0.00005877    -0.00000208  0.14D-05  0.37D-06  6  2    36.44
   8      1.31260575    -0.84318953  -268.10850787    -0.00004265    -0.00000065  0.45D-06  0.11D-06  6  1    41.25
   9      1.31279072    -0.84319411  -268.10851245    -0.00000458    -0.00000022  0.15D-06  0.35D-07  6  4    46.08
  10      1.31285390    -0.84319705  -268.10851539    -0.00000294    -0.00000005  0.35D-07  0.95D-08  6  3    50.88
  11      1.31288335    -0.84319579  -268.10851412     0.00000127    -0.00000002  0.13D-07  0.28D-08  6  5    55.71
  12      1.31289370    -0.84319552  -268.10851385     0.00000027    -0.00000000  0.26D-08  0.95D-09  6  6    60.53
  13      1.31289255    -0.84319460  -268.10851294     0.00000092    -0.00000000  0.96D-09  0.28D-09  6  2    65.35
  14      1.31288734    -0.84319376  -268.10851209     0.00000084    -0.00000000  0.21D-09  0.68D-10  6  1    70.09
  15      1.31288327    -0.84319317  -268.10851151     0.00000059    -0.00000000  0.78D-10  0.19D-10  6  4    76.38
  16      1.31288008    -0.84319279  -268.10851112     0.00000038    -0.00000000  0.28D-10  0.63D-11  6  3    81.45
  17      1.31287788    -0.84319255  -268.10851088     0.00000024    -0.00000000  0.10D-10  0.24D-11  6  5    86.27
  18      1.31287698    -0.84319249  -268.10851082     0.00000006    -0.00000000  0.41D-11  0.87D-12  6  6    91.09
  19      1.31287637    -0.84319246  -268.10851079     0.00000003    -0.00000000  0.16D-11  0.37D-12  6  2    95.91
  20      1.31287605    -0.84319244  -268.10851078     0.00000001    -0.00000000  0.60D-12  0.13D-12  6  1   100.71
  21      1.31287589    -0.84319243  -268.10851077     0.00000001    -0.00000000  0.28D-12  0.58D-13  6  4   106.05
  22      1.31287576    -0.84319243  -268.10851076     0.00000001    -0.00000000  0.74D-13  0.21D-13  6  3   112.34
  23      1.31287571    -0.84319242  -268.10851076     0.00000000    -0.00000000  0.22D-13  0.63D-14  6  5   118.63
  24      1.31287570    -0.84319242  -268.10851076    -0.00000000    -0.00000000  0.68D-14  0.23D-14  6  6   124.92
  25      1.31287570    -0.84319243  -268.10851076    -0.00000000    -0.00000000  0.21D-14  0.53D-15  6  2   131.20
  26      1.31287571    -0.84319243  -268.10851076    -0.00000000    -0.00000000  0.77D-15  0.15D-15  6  1   137.51
  27      1.31287572    -0.84319243  -268.10851076    -0.00000000    -0.00000000  0.20D-15  0.63D-16  6  3   143.84
  28      1.31287573    -0.84319243  -268.10851076    -0.00000000    -0.00000000  0.30D-16  0.11D-16  6  4   150.15
  29      1.31287573    -0.84319243  -268.10851076    -0.00000000    -0.00000000  0.70D-17  0.29D-17  6  5   156.44
  30      1.31287573    -0.84319243  -268.10851076    -0.00000000    -0.00000000  0.15D-17  0.54D-18  6  6   162.76
  31      1.31287573    -0.84319243  -268.10851076    -0.00000000    -0.00000000  0.35D-18  0.10D-18  6  2   169.06

 Norm of t1 vector:      0.13875988      S-energy:    -0.00282197      T1 diagnostic:  0.01617415
                                                                       D1 diagnostic:  0.06284970
 Norm of t2 vector:      0.54186846      P-energy:    -0.84037046
                                         Alpha-Beta:  -0.66493026
                                         Alpha-Alpha: -0.09147103
                                         Beta-Beta:   -0.08396917

 Spin contamination <S**2-Sz**2-Sz>     0.00217158

 Memory could be reduced to 28.85 Mwords without degradation in triples
 

 RESULTS
 =======

  Reference energy                   -267.265318332590
  UCCSD singles energy                 -0.002821969629
  UCCSD pair energy                    -0.840370457235
  UCCSD correlation energy             -0.843192426864
  Triples (T) contribution             -0.024983635542
  Total correlation energy             -0.868176062407
 
  RHF-UCCSD energy                   -268.108510759454
  RHF-UCCSD[T] energy                -268.134831002917
  RHF-UCCSD-T energy                 -268.133072639121
 !RHF-UCCSD(T) energy                -268.133494394997

 Program statistics:

 Available memory in ccsd:               999997692
 Min. memory needed in ccsd:               7337057
 Max. memory used in ccsd:                10523002
 Max. memory used in cckext:              10867977 (31 integral passes)
 Max. memory used in cckint:              12633073 ( 1 integral passes)



 **********************************************************************************************************************************
 DATASETS  * FILE   NREC   LENGTH (MB)   RECORD NAMES
              1      18        3.17       500      610      700      900      950      970     1000      129      960     1100   
                                          VAR    BASINP    GEOM    SYMINP    ZMAT    AOBASIS   BASIS     P2S    ABASIS      S 
                                         1400     1410     1200     1210     1080     1600     1650     1700   
                                           T        V       H0       H01     AOSYM     SMH    MOLCAS    OPER   

              2       3        0.77       700     1000     2100   
                                         GEOM     BASIS     RHF  

 PROGRAMS   *        TOTAL  UCCSD(T)       RHF       INT
 CPU TIMES  *       215.80    214.08      0.92      0.76
 REAL TIME  *       226.35 SEC
 DISK USED  *         1.29 GB      
 SF USED    *       553.73 MB      
 GA USED    *         0.00 MB       (max)       0.00 MB       (current)
 **********************************************************************************************************************************

        UCCSD(T)        RHF-SCF 
   -268.13349439   -267.26531833
 **********************************************************************************************************************************
 Variable memory released
