
 Primary working directories    : /tmp/320938.735.gen4.q
 Secondary working directories  : /tmp/320938.735.gen4.q
 Wavefunction directory         : /home/vulcan/mel64643/wfu/
 Main file repository           : /tmp/320938.735.gen4.q/

 ARCHNAME  : Linux/x86_64
 FC        : /opt/intel/compilers_and_libraries_2016.1.150/linux/bin/intel64/ifort
 FCVERSION : 16.0.1
 BLASLIB   : -mkl
 id        : ccgc

 Nodes     nprocs
 n034         3
 Number of processes for MPI-2 version of Molpro:   nprocs(total)=    4   nprocs(compute)=    3   nprocs(helper)=    1
 ga_uses_ma=false, calling ma_init with nominal heap.
 GA-space will be limited to   8.0 MW (determined by -G option)

 Using customized tuning parameters: mindgm=10; mindgv=16; mindgc=4; mindgr=1; noblas=0; mincuda=1000; minvec=7
 default implementation of scratch files=sf  

 ***,Frequencies for min3
 memory,1000,m
 gthresh,energy=1.0d-10,orbital=1.0d-10,oneint=1.0d-16,twoint=1.0d-16,optgrad=1.0d-6,compress=1.0d-13
 geomtyp=xyz
 
  geometry = {
  12
  arbitrary comment
     C    1.776964391707    0.712000627080   -0.047340337089
     C    0.492505161836   -0.060205915837   -0.196516705026
     C    0.450014021422   -1.536496203536    0.101426352006
     O   -0.560825289133    0.727150724006    0.254444005798
     O   -1.837980346771    0.092322091955   -0.120493333818
     H    2.585233014362    0.211006576634   -0.611527174148
     H    1.660465349882    1.742537495585   -0.426624710713
     H    2.095092358044    0.773678068169    1.017566051159
     H   -0.505249767850   -1.982876547592   -0.220039512297
     H    1.281502688930   -2.047512053887   -0.417161791771
     H    0.561475031595   -1.719361360087    1.194753579428
     H   -1.988157498929    0.550888660433   -0.966962985110
  }
 
 basis=cc-pvdz
 {rhf;maxit,200}
 {uccsd(t);maxit,200}

 Variables initialized (661), CPU time= 0.01 sec
 Commands  initialized (458), CPU time= 0.01 sec, 486 directives.
 Default parameters read. Elapsed time= 0.07 sec

 Checking input...
 Passed
1


                                         ***  PROGRAM SYSTEM MOLPRO  ***
                         Copyright, University College Cardiff Consultants Limited, 2008

                                    Version 2010.1 linked May 16 2016 07:17:05


 **********************************************************************************************************************************
 LABEL *   Frequencies for min3                                                          
 Linux-4.4.3/n034(x86_64) 64 bit mpp version                                             DATE: 07-Mar-20          TIME: 05:18:05  
 **********************************************************************************************************************************

 SHA1:             9e8077add272b0f3cad6f7df79ec5211205f459d
 **********************************************************************************************************************************

 THRESHOLDS:

 ZERO    =  1.00D-12  ONEINT  =  1.00D-16  TWOINT  =  1.00D-16  PREFAC  =  1.00D-14  LOCALI  =  1.00D-09  EORDER  =  1.00D-04
 ENERGY  =  1.00D-10  ETEST   =  0.00D+00  EDENS   =  0.00D+00  THRDEDEF=  1.00D-06  GRADIENT=  1.00D-02  STEP    =  1.00D-03
 ORBITAL =  1.00D-10  CIVEC   =  1.00D-05  COEFF   =  1.00D-04  PRINTCI =  5.00D-02  PUNCHCI =  9.90D+01  OPTGRAD =  1.00D-06
 OPTENERG=  1.00D-06  OPTSTEP =  3.00D-04  THRGRAD =  1.00D-10  COMPRESS=  1.00D-13  VARMIN  =  1.00D-07  VARMAX  =  1.00D-03
 THRDOUB =  0.00D+00  THRDIV  =  1.00D-05  THRRED  =  1.00D-07  THRPSP  =  1.00D+00  THRDC   =  1.00D-10  THRCS   =  1.00D-10
 THRNRM  =  1.00D-08  THREQ   =  0.00D+00  THRDE   =  1.00D+00  THRREF  =  1.00D-05  SPARFAC =  1.00D+00  THRDLP  =  1.00D-07
 THRDIA  =  1.00D-10  THRDLS  =  1.00D-07  THRGPS  =  0.00D+00  THRKEX  =  0.00D+00  THRDIS  =  2.00D-01  THRVAR  =  1.00D-10
 THRLOC  =  1.00D-06  THRGAP  =  1.00D-06  THRLOCT = -1.00D+00  THRGAPT = -1.00D+00  THRORB  =  1.00D-06  THRMLTP =  0.00D+00
 THRCPQCI=  1.00D-10  KEXTA   =  0.00D+00  THRCOARS=  0.00D+00  SYMTOL  =  1.00D-06  GRADTOL =  1.00D-06  THROVL  =  1.00D-08
 THRORTH =  1.00D-08  GRID    =  1.00D-06  GRIDMAX =  1.00D-03  DTMAX   =  0.00D+00

 SETTING GEOMTYP        =    XYZ

 Variable memory set to 1000000000 words,  buffer space   230000 words

 SETTING BASIS          =    CC-PVDZ


 Recomputing integrals since basis changed


 Using spherical harmonics

 Library entry C      S cc-pVDZ              selected for orbital group  1
 Library entry C      P cc-pVDZ              selected for orbital group  1
 Library entry C      D cc-pVDZ              selected for orbital group  1
 Library entry O      S cc-pVDZ              selected for orbital group  2
 Library entry O      P cc-pVDZ              selected for orbital group  2
 Library entry O      D cc-pVDZ              selected for orbital group  2
 Library entry H      S cc-pVDZ              selected for orbital group  3
 Library entry H      P cc-pVDZ              selected for orbital group  3

1PROGRAM * SEWARD (Integral evaluation for generally contracted gaussian basis sets)     Author: Roland Lindh, 1990

 Geometry written to block  1 of record 700


 Point group  C1  



 ATOMIC COORDINATES

 NR  ATOM    CHARGE       X              Y              Z

   1  C       6.00    3.357976046    1.345486191   -0.089460272
   2  C       6.00    0.930699874   -0.113772692   -0.371362753
   3  C       6.00    0.850403256   -2.903557027    0.191668028
   4  O       8.00   -1.059806204    1.374115725    0.480829487
   5  O       8.00   -3.473279490    0.174463470   -0.227699402
   6  H       1.00    4.885382383    0.398744642   -1.155618881
   7  H       1.00    3.137824762    3.292918640   -0.806203864
   8  H       1.00    3.959150777    1.462039663    1.922921157
   9  H       1.00   -0.954783689   -3.747093627   -0.415814416
  10  H       1.00    2.421689119   -3.869237033   -0.788321539
  11  H       1.00    1.061034039   -3.249122092    2.257757060
  12  H       1.00   -3.757073179    1.041028697   -1.827295221

 Bond lengths in Bohr (Angstrom)

 1-2  2.846150929  1-6  2.089493685  1-7  2.086787270  1-8  2.103491095  2-3  2.847164877
     ( 1.506118205)     ( 1.105712436)     ( 1.104280263)     ( 1.113119547)     ( 1.506654763)

  2- 4  2.627195844   3- 9  2.083095971   3-10  2.088505851   3-11  2.105351379   4- 5  2.786760130
       ( 1.390252164)       ( 1.102326912)       ( 1.105189697)       ( 1.114103967)       ( 1.474689948)

  5-12  1.841244399
       ( 0.974344572)

 Bond angles

  1-2-3  120.45391415   1-2-4  108.88380000   2-1-6  109.91128302   2-1-7  110.76179677

  2- 1- 8  111.52474083   2- 3- 9  111.31857316   2- 3-10  109.81906444   2- 3-11  110.61401619

  2- 4- 5  109.26240376   3- 2- 4  117.99627921   4- 5-12   98.72910084   6- 1- 7  108.94760285

  6- 1- 8  107.71820105   7- 1- 8  107.88048459   9- 3-10  109.14141692   9- 3-11  107.84352457

 10- 3-11  108.01808057

 NUCLEAR CHARGE:                   41
 NUMBER OF PRIMITIVE AOS:         184
 NUMBER OF SYMMETRY AOS:          179
 NUMBER OF CONTRACTIONS:          105   ( 105A   )
 NUMBER OF CORE ORBITALS:           5   (   5A   )
 NUMBER OF VALENCE ORBITALS:       27   (  27A   )


 NUCLEAR REPULSION ENERGY  183.21056896


 Eigenvalues of metric

         1 0.345E-02 0.435E-02 0.105E-01 0.141E-01 0.182E-01 0.214E-01 0.331E-01 0.346E-01


 Contracted 2-electron integrals neglected if value below      1.0D-16
 AO integral compression algorithm  1   Integral accuracy      1.0D-16

     127.402 MB (compressed) written to integral file ( 93.4%)

     Node minimum: 35.652 MB, node maximum: 47.186 MB


 NUMBER OF SORTED TWO-ELECTRON INTEGRALS:    5164320.     BUFFER LENGTH:  32768
 NUMBER OF SEGMENTS:   1  SEGMENT LENGTH:    5164320      RECORD LENGTH: 524288

 Memory used in sort:       5.72 MW

 SORT1 READ    17075251. AND WROTE     5135894. INTEGRALS IN     15 RECORDS. CPU TIME:     0.35 SEC, REAL TIME:     0.41 SEC
 SORT2 READ    15396606. AND WROTE    15487395. INTEGRALS IN    408 RECORDS. CPU TIME:     0.10 SEC, REAL TIME:     0.16 SEC

 Node minimum:     5160610.  Node maximum:     5164320. integrals

 OPERATOR DM      FOR CENTER  0  COORDINATES:    0.000000    0.000000    0.000000


 **********************************************************************************************************************************
 DATASETS  * FILE   NREC   LENGTH (MB)   RECORD NAMES
              1      18        3.17       500      610      700      900      950      970     1000      129      960     1100   
                                          VAR    BASINP    GEOM    SYMINP    ZMAT    AOBASIS   BASIS     P2S    ABASIS      S 
                                         1400     1410     1200     1210     1080     1600     1650     1700   
                                           T        V       H0       H01     AOSYM     SMH    MOLCAS    OPER   

 PROGRAMS   *        TOTAL       INT
 CPU TIMES  *         1.79      1.69
 REAL TIME  *         2.09 SEC
 DISK USED  *       310.77 MB      
 GA USED    *         0.00 MB       (max)       0.00 MB       (current)
 **********************************************************************************************************************************

1PROGRAM * RHF-SCF (OPEN SHELL)       Authors: W. Meyer, H.-J. Werner


 NUMBER OF ELECTRONS:      21+   20-    SPACE SYMMETRY=1    SPIN SYMMETRY: Doublet 
 CONVERGENCE THRESHOLDS:    1.00E-10 (Density)    1.00E-11 (Energy)
 MAX. NUMBER OF ITERATIONS:      200
 INTERPOLATION TYPE:            DIIS
 INTERPOLATION STEPS:              2 (START)      1 (STEP)
 LEVEL SHIFTS:                 -0.30 (CLOSED)  0.00 (OPEN) 



 Orbital guess generated from atomic densities. Full valence occupancy:   32

 Molecular orbital dump at record        2100.2

 ITERATION    DDIFF          GRAD             ENERGY        2-EL.EN.            DIPOLE MOMENTS         DIIS
    1      0.000D+00      0.000D+00      -267.17826886    555.797872    0.57207    0.04792   -0.74963    0
    2      0.000D+00      0.617D-02      -267.24894395    555.718239    0.41531   -0.13161   -0.59896    1
    3      0.927D-02      0.214D-02      -267.26111616    555.636793    0.39507   -0.05969   -0.62634    2
    4      0.336D-02      0.912D-03      -267.26471804    555.788922    0.38044   -0.09970   -0.64266    3
    5      0.186D-02      0.363D-03      -267.26528521    555.760271    0.38296   -0.09316   -0.63561    4
    6      0.791D-03      0.110D-03      -267.26536124    555.746557    0.38124   -0.09295   -0.63834    5
    7      0.276D-03      0.510D-04      -267.26538128    555.743534    0.38053   -0.09269   -0.63782    6
    8      0.143D-03      0.272D-04      -267.26538732    555.741601    0.38081   -0.09280   -0.63803    7
    9      0.922D-04      0.115D-04      -267.26538824    555.741903    0.38099   -0.09276   -0.63779    8
   10      0.365D-04      0.501D-05      -267.26538840    555.742520    0.38125   -0.09277   -0.63785    9
   11      0.147D-04      0.196D-05      -267.26538842    555.742362    0.38130   -0.09277   -0.63786    9
   12      0.650D-05      0.670D-06      -267.26538843    555.742496    0.38132   -0.09277   -0.63785    9
   13      0.227D-05      0.226D-06      -267.26538843    555.742411    0.38133   -0.09277   -0.63785    9
   14      0.632D-06      0.757D-07      -267.26538843    555.742420    0.38133   -0.09277   -0.63785    9
   15      0.193D-06      0.300D-07      -267.26538843    555.742416    0.38133   -0.09277   -0.63785    9
   16      0.823D-07      0.145D-07      -267.26538843    555.742418    0.38133   -0.09277   -0.63785    9
   17      0.374D-07      0.750D-08      -267.26538843    555.742418    0.38133   -0.09277   -0.63785    9
   18      0.222D-07      0.341D-08      -267.26538843    555.742418    0.38133   -0.09277   -0.63785    9
   19      0.114D-07      0.133D-08      -267.26538843    555.742418    0.38133   -0.09277   -0.63785    9
   20      0.443D-08      0.565D-09      -267.26538843    555.742418    0.38133   -0.09277   -0.63785    9
   21      0.165D-08      0.286D-09      -267.26538843    555.742418    0.38133   -0.09277   -0.63785    9
   22      0.752D-09      0.162D-09      -267.26538843    555.742418    0.38133   -0.09277   -0.63785    9
   23      0.446D-09      0.795D-10      -267.26538843    555.742418    0.38133   -0.09277   -0.63785    9
   24      0.264D-09      0.316D-10      -267.26538843    555.742418    0.38133   -0.09277   -0.63785    9
   25      0.932D-10      0.129D-10      -267.26538843    555.742418    0.38133   -0.09277   -0.63785    0

 Final alpha occupancy:  21
 Final beta  occupancy:  20

 !RHF STATE 1.1 Energy               -267.265388425784
 Nuclear energy                       183.21056896
 One-electron energy                 -728.34716627
 Two-electron energy                  277.87120889
 Virial quotient                       -1.00155617
 !RHF STATE 1.1 Dipole moment           0.38132852    -0.09276961    -0.63785204
 Dipole moment /Debye                   0.96917693    -0.23578137    -1.62115199

 Orbital energies:

         1.1          2.1          3.1          4.1          5.1          6.1          7.1          8.1          9.1         10.1
    -20.630361   -20.628725   -11.279293   -11.237875   -11.232232    -1.469950    -1.240522    -1.023261    -0.945455    -0.768336

        11.1         12.1         13.1         14.1         15.1         16.1         17.1         18.1         19.1         20.1
     -0.704482    -0.643002    -0.626632    -0.588846    -0.545080    -0.543390    -0.538972    -0.517109    -0.492855    -0.469822

        21.1         22.1         23.1
     -0.352351     0.181298     0.183562


 **********************************************************************************************************************************
 DATASETS  * FILE   NREC   LENGTH (MB)   RECORD NAMES
              1      18        3.17       500      610      700      900      950      970     1000      129      960     1100   
                                          VAR    BASINP    GEOM    SYMINP    ZMAT    AOBASIS   BASIS     P2S    ABASIS      S 
                                         1400     1410     1200     1210     1080     1600     1650     1700   
                                           T        V       H0       H01     AOSYM     SMH    MOLCAS    OPER   

              2       3        0.77       700     1000     2100   
                                         GEOM     BASIS     RHF  

 PROGRAMS   *        TOTAL       RHF       INT
 CPU TIMES  *         3.79      2.00      1.69
 REAL TIME  *         4.26 SEC
 DISK USED  *       327.34 MB      
 SF USED    *         0.04 MB      
 GA USED    *         0.00 MB       (max)       0.00 MB       (current)
 **********************************************************************************************************************************


1PROGRAM * CCSD (Unrestricted open-shell coupled cluster)     Authors: C. Hampel, H.-J. Werner, 1991, M. Deegan, P.J. Knowles, 1992


 Convergence thresholds:  THRVAR = 1.00D-08  THRDEN = 1.00D-10

 CCSD(T)     terms to be evaluated (factor= 1.000)


 Number of core orbitals:           5 (   5 )
 Number of closed-shell orbitals:  15 (  15 )
 Number of active  orbitals:        1 (   1 )
 Number of external orbitals:      84 (  84 )

 Memory could be reduced to 24.91 Mwords without degradation in triples

 Number of N-1 electron functions:              31
 Number of N-2 electron functions:             465
 Number of singly external CSFs:              2635
 Number of doubly external CSFs:           2537250
 Total number of CSFs:                     2539885

 Molecular orbitals read from record     2100.2  Type=RHF/CANONICAL (state 1.1)

 Integral transformation finished. Total CPU:   1.61 sec, npass=  1  Memory used:  12.63 MW

 Starting RMP2 calculation

 ITER.      SQ.NORM     CORR.ENERGY   TOTAL ENERGY   ENERGY CHANGE        DEN1      VAR(S)    VAR(P)  DIIS     TIME
   1      1.24303625    -0.78637789  -268.05176632    -0.78637789    -0.00304991  0.20D-04  0.11D-02  1  1     2.11
   2      1.24567779    -0.78966702  -268.05505545    -0.00328913    -0.00000474  0.54D-06  0.19D-05  2  2     2.53
   3      1.24574334    -0.78970909  -268.05509751    -0.00004206    -0.00000003  0.16D-07  0.68D-08  3  3     2.98
   4      1.24574429    -0.78970909  -268.05509751    -0.00000000    -0.00000000  0.27D-09  0.38D-10  4  4     3.46
   5      1.24574437    -0.78970912  -268.05509755    -0.00000003    -0.00000000  0.25D-11  0.65D-12  5  5     3.97
   6      1.24574439    -0.78970913  -268.05509755    -0.00000001    -0.00000000  0.28D-13  0.86D-14  6  6     4.50
   7      1.24574439    -0.78970912  -268.05509755     0.00000000    -0.00000000  0.47D-15  0.12D-15  6  1     5.05
   8      1.24574439    -0.78970912  -268.05509755     0.00000000    -0.00000000  0.59D-17  0.13D-17  6  2     5.60

 Norm of t1 vector:      0.03893326      S-energy:    -0.00227173      T1 diagnostic:  0.00055018
 Norm of t2 vector:      0.49419489      P-energy:    -0.78743740
                                         Alpha-Beta:  -0.59341928
                                         Alpha-Alpha: -0.10093971
                                         Beta-Beta:   -0.09307841

 Spin contamination <S**2-Sz**2-Sz>     0.00104036
  Reference energy                   -267.265388425786
  RHF-RMP2 correlation energy          -0.789709124939
 !RHF-RMP2 energy                    -268.055097550725

 Starting UCCSD calculation

 ITER.      SQ.NORM     CORR.ENERGY   TOTAL ENERGY   ENERGY CHANGE        DEN1      VAR(S)    VAR(P)  DIIS     TIME
   1      1.26280872    -0.80904663  -268.07443506    -0.80904663    -0.02515878  0.38D-02  0.59D-02  1  1    15.19
   2      1.29158585    -0.83645802  -268.10184644    -0.02741139    -0.00201169  0.22D-03  0.66D-03  2  2    25.03
   3      1.30152848    -0.84095664  -268.10634506    -0.00449862    -0.00032474  0.19D-03  0.56D-04  3  3    35.09
   4      1.30644211    -0.84243408  -268.10782251    -0.00147745    -0.00007209  0.43D-04  0.14D-04  4  4    45.06
   5      1.30917134    -0.84282220  -268.10821063    -0.00038812    -0.00002367  0.19D-04  0.32D-05  5  5    55.07
   6      1.31110917    -0.84302660  -268.10841503    -0.00020440    -0.00000645  0.42D-05  0.12D-05  6  6    65.09
   7      1.31205754    -0.84308535  -268.10847378    -0.00005875    -0.00000208  0.14D-05  0.37D-06  6  2    75.09
   8      1.31249834    -0.84312799  -268.10851642    -0.00004264    -0.00000065  0.45D-06  0.11D-06  6  1    85.10
   9      1.31268292    -0.84313255  -268.10852098    -0.00000456    -0.00000022  0.15D-06  0.35D-07  6  4    95.11
  10      1.31274589    -0.84313549  -268.10852391    -0.00000293    -0.00000005  0.35D-07  0.95D-08  6  3   105.15
  11      1.31277530    -0.84313421  -268.10852264     0.00000127    -0.00000002  0.13D-07  0.28D-08  6  5   114.49
  12      1.31278563    -0.84313395  -268.10852238     0.00000027    -0.00000000  0.26D-08  0.95D-09  6  6   123.61
  13      1.31278449    -0.84313303  -268.10852146     0.00000092    -0.00000000  0.96D-09  0.28D-09  6  2   130.43
  14      1.31277928    -0.84313219  -268.10852062     0.00000084    -0.00000000  0.21D-09  0.67D-10  6  1   137.25
  15      1.31277521    -0.84313161  -268.10852003     0.00000059    -0.00000000  0.78D-10  0.19D-10  6  4   144.10
  16      1.31277203    -0.84313122  -268.10851965     0.00000038    -0.00000000  0.28D-10  0.63D-11  6  3   151.00
  17      1.31276983    -0.84313098  -268.10851941     0.00000024    -0.00000000  0.10D-10  0.24D-11  6  5   157.86
  18      1.31276893    -0.84313092  -268.10851935     0.00000006    -0.00000000  0.41D-11  0.87D-12  6  6   164.73
  19      1.31276832    -0.84313089  -268.10851932     0.00000003    -0.00000000  0.16D-11  0.37D-12  6  2   171.55
  20      1.31276800    -0.84313088  -268.10851930     0.00000001    -0.00000000  0.60D-12  0.13D-12  6  1   178.37
  21      1.31276784    -0.84313087  -268.10851929     0.00000001    -0.00000000  0.28D-12  0.58D-13  6  4   185.21
  22      1.31276772    -0.84313086  -268.10851929     0.00000001    -0.00000000  0.74D-13  0.21D-13  6  3   192.04
  23      1.31276766    -0.84313086  -268.10851928     0.00000000    -0.00000000  0.21D-13  0.62D-14  6  5   198.87
  24      1.31276766    -0.84313086  -268.10851928    -0.00000000    -0.00000000  0.67D-14  0.22D-14  6  6   205.70
  25      1.31276766    -0.84313086  -268.10851928    -0.00000000    -0.00000000  0.21D-14  0.52D-15  6  2   212.51
  26      1.31276767    -0.84313086  -268.10851929    -0.00000000    -0.00000000  0.77D-15  0.15D-15  6  1   219.33
  27      1.31276768    -0.84313086  -268.10851929    -0.00000000    -0.00000000  0.20D-15  0.62D-16  6  3   226.16
  28      1.31276768    -0.84313086  -268.10851929    -0.00000000    -0.00000000  0.29D-16  0.11D-16  6  4   233.04
  29      1.31276768    -0.84313086  -268.10851929    -0.00000000    -0.00000000  0.70D-17  0.29D-17  6  5   239.85
  30      1.31276769    -0.84313086  -268.10851929    -0.00000000    -0.00000000  0.15D-17  0.54D-18  6  6   246.66
  31      1.31276769    -0.84313086  -268.10851929    -0.00000000    -0.00000000  0.35D-18  0.10D-18  6  2   253.47

 Norm of t1 vector:      0.13870829      S-energy:    -0.00282132      T1 diagnostic:  0.01616844
                                                                       D1 diagnostic:  0.06283374
 Norm of t2 vector:      0.54178196      P-energy:    -0.84030954
                                         Alpha-Beta:  -0.66486898
                                         Alpha-Alpha: -0.09147169
                                         Beta-Beta:   -0.08396887

 Spin contamination <S**2-Sz**2-Sz>     0.00216877

 Memory could be reduced to 28.85 Mwords without degradation in triples
 

 RESULTS
 =======

  Reference energy                   -267.265388425786
  UCCSD singles energy                 -0.002821317046
  UCCSD pair energy                    -0.840309543502
  UCCSD correlation energy             -0.843130860548
  Triples (T) contribution             -0.024977326865
  Total correlation energy             -0.868108187413
 
  RHF-UCCSD energy                   -268.108519286333
  RHF-UCCSD[T] energy                -268.134833157831
  RHF-UCCSD-T energy                 -268.133074739890
 !RHF-UCCSD(T) energy                -268.133496613199

 Program statistics:

 Available memory in ccsd:               999997692
 Min. memory needed in ccsd:               7337057
 Max. memory used in ccsd:                10523002
 Max. memory used in cckext:              10867977 (31 integral passes)
 Max. memory used in cckint:              12633073 ( 1 integral passes)



 **********************************************************************************************************************************
 DATASETS  * FILE   NREC   LENGTH (MB)   RECORD NAMES
              1      18        3.17       500      610      700      900      950      970     1000      129      960     1100   
                                          VAR    BASINP    GEOM    SYMINP    ZMAT    AOBASIS   BASIS     P2S    ABASIS      S 
                                         1400     1410     1200     1210     1080     1600     1650     1700   
                                           T        V       H0       H01     AOSYM     SMH    MOLCAS    OPER   

              2       3        0.77       700     1000     2100   
                                         GEOM     BASIS     RHF  

 PROGRAMS   *        TOTAL  UCCSD(T)       RHF       INT
 CPU TIMES  *       318.28    314.47      2.00      1.69
 REAL TIME  *       331.81 SEC
 DISK USED  *         1.29 GB      
 SF USED    *       553.73 MB      
 GA USED    *         0.00 MB       (max)       0.00 MB       (current)
 **********************************************************************************************************************************

        UCCSD(T)        RHF-SCF 
   -268.13349661   -267.26538843
 **********************************************************************************************************************************
 Variable memory released
