
 Primary working directories    : /tmp/320938.84.gen6.q
 Secondary working directories  : /tmp/320938.84.gen6.q
 Wavefunction directory         : /home/vulcan/mel64643/wfu/
 Main file repository           : /tmp/320938.84.gen6.q/

 ARCHNAME  : Linux/x86_64
 FC        : /opt/intel/compilers_and_libraries_2016.1.150/linux/bin/intel64/ifort
 FCVERSION : 16.0.1
 BLASLIB   : -mkl
 id        : ccgc

 Nodes     nprocs
 n076         3
 Number of processes for MPI-2 version of Molpro:   nprocs(total)=    4   nprocs(compute)=    3   nprocs(helper)=    1
 ga_uses_ma=false, calling ma_init with nominal heap.
 GA-space will be limited to   8.0 MW (determined by -G option)

 Using customized tuning parameters: mindgm=10; mindgv=16; mindgc=4; mindgr=1; noblas=0; mincuda=1000; minvec=7
 default implementation of scratch files=sf  

 ***,Frequencies for min3
 memory,1000,m
 gthresh,energy=1.0d-10,orbital=1.0d-10,oneint=1.0d-16,twoint=1.0d-16,optgrad=1.0d-6,compress=1.0d-13
 geomtyp=xyz
 
  geometry = {
  12
  arbitrary comment
     C    1.776964391707    0.711398808326   -0.047841264117
     C    0.491851038607   -0.059957565567   -0.196226120821
     C    0.450320560748   -1.536305384832    0.101446886164
     O   -0.560818098403    0.727195755748    0.254643069170
     O   -1.837816411652    0.092283439514   -0.120686384960
     H    2.585490536132    0.211574125987   -0.610729795284
     H    1.660502510806    1.742963741284   -0.425759333325
     H    2.094926794706    0.773900078783    1.018355435777
     H   -0.504820339346   -1.982741069694   -0.220307236756
     H    1.280277048452   -2.045855621311   -0.416775177471
     H    0.562361805967   -1.719960130406    1.194723648249
     H   -1.986954450089    0.550315113539   -0.967339483833
  }
 
 basis=cc-pvdz
 {rhf;maxit,200}
 {uccsd(t);maxit,200}

 Variables initialized (661), CPU time= 0.00 sec
 Commands  initialized (458), CPU time= 0.00 sec, 486 directives.
 Default parameters read. Elapsed time= 0.05 sec

 Checking input...
 Passed
1


                                         ***  PROGRAM SYSTEM MOLPRO  ***
                         Copyright, University College Cardiff Consultants Limited, 2008

                                    Version 2010.1 linked May 16 2016 07:17:05


 **********************************************************************************************************************************
 LABEL *   Frequencies for min3                                                          
 Linux-4.4.3/n076(x86_64) 64 bit mpp version                                             DATE: 07-Mar-20          TIME: 01:26:19  
 **********************************************************************************************************************************

 SHA1:             9e8077add272b0f3cad6f7df79ec5211205f459d
 **********************************************************************************************************************************

 THRESHOLDS:

 ZERO    =  1.00D-12  ONEINT  =  1.00D-16  TWOINT  =  1.00D-16  PREFAC  =  1.00D-14  LOCALI  =  1.00D-09  EORDER  =  1.00D-04
 ENERGY  =  1.00D-10  ETEST   =  0.00D+00  EDENS   =  0.00D+00  THRDEDEF=  1.00D-06  GRADIENT=  1.00D-02  STEP    =  1.00D-03
 ORBITAL =  1.00D-10  CIVEC   =  1.00D-05  COEFF   =  1.00D-04  PRINTCI =  5.00D-02  PUNCHCI =  9.90D+01  OPTGRAD =  1.00D-06
 OPTENERG=  1.00D-06  OPTSTEP =  3.00D-04  THRGRAD =  1.00D-10  COMPRESS=  1.00D-13  VARMIN  =  1.00D-07  VARMAX  =  1.00D-03
 THRDOUB =  0.00D+00  THRDIV  =  1.00D-05  THRRED  =  1.00D-07  THRPSP  =  1.00D+00  THRDC   =  1.00D-10  THRCS   =  1.00D-10
 THRNRM  =  1.00D-08  THREQ   =  0.00D+00  THRDE   =  1.00D+00  THRREF  =  1.00D-05  SPARFAC =  1.00D+00  THRDLP  =  1.00D-07
 THRDIA  =  1.00D-10  THRDLS  =  1.00D-07  THRGPS  =  0.00D+00  THRKEX  =  0.00D+00  THRDIS  =  2.00D-01  THRVAR  =  1.00D-10
 THRLOC  =  1.00D-06  THRGAP  =  1.00D-06  THRLOCT = -1.00D+00  THRGAPT = -1.00D+00  THRORB  =  1.00D-06  THRMLTP =  0.00D+00
 THRCPQCI=  1.00D-10  KEXTA   =  0.00D+00  THRCOARS=  0.00D+00  SYMTOL  =  1.00D-06  GRADTOL =  1.00D-06  THROVL  =  1.00D-08
 THRORTH =  1.00D-08  GRID    =  1.00D-06  GRIDMAX =  1.00D-03  DTMAX   =  0.00D+00

 SETTING GEOMTYP        =    XYZ

 Variable memory set to 1000000000 words,  buffer space   230000 words

 SETTING BASIS          =    CC-PVDZ


 Recomputing integrals since basis changed


 Using spherical harmonics

 Library entry C      S cc-pVDZ              selected for orbital group  1
 Library entry C      P cc-pVDZ              selected for orbital group  1
 Library entry C      D cc-pVDZ              selected for orbital group  1
 Library entry O      S cc-pVDZ              selected for orbital group  2
 Library entry O      P cc-pVDZ              selected for orbital group  2
 Library entry O      D cc-pVDZ              selected for orbital group  2
 Library entry H      S cc-pVDZ              selected for orbital group  3
 Library entry H      P cc-pVDZ              selected for orbital group  3

1PROGRAM * SEWARD (Integral evaluation for generally contracted gaussian basis sets)     Author: Roland Lindh, 1990

 Geometry written to block  1 of record 700


 Point group  C1  



 ATOMIC COORDINATES

 NR  ATOM    CHARGE       X              Y              Z

   1  C       6.00    3.357976046    1.344348918   -0.090406887
   2  C       6.00    0.929463760   -0.113303378   -0.370813628
   3  C       6.00    0.850982531   -2.903196432    0.191706832
   4  O       8.00   -1.059792616    1.374200822    0.481205662
   5  O       8.00   -3.472969698    0.174390427   -0.228064215
   6  H       1.00    4.885869029    0.399817155   -1.154112053
   7  H       1.00    3.137894986    3.293724128   -0.804568538
   8  H       1.00    3.958837907    1.462459202    1.924412878
   9  H       1.00   -0.953972187   -3.746837611   -0.416320342
  10  H       1.00    2.419372994   -3.866106829   -0.787590944
  11  H       1.00    1.062709800   -3.250253603    2.257700498
  12  H       1.00   -3.754799746    1.039944851   -1.828006701

 Bond lengths in Bohr (Angstrom)

 1-2  2.846234368  1-6  2.087598118  1-7  2.087708372  1-8  2.105821384  2-3  2.847119917
     ( 1.506162359)     ( 1.104709345)     ( 1.104767689)     ( 1.114352683)     ( 1.506630971)

  2- 4  2.625975352   3- 9  2.083096018   3-10  2.084722814   3-11  2.105613199   4- 5  2.786760193
       ( 1.389606307)       ( 1.102326937)       ( 1.103187800)       ( 1.114242516)       ( 1.474689981)

  5-12  1.840768479
       ( 0.974092726)

 Bond angles

  1-2-3  120.39075208   1-2-4  108.92230933   2-1-6  110.03309560   2-1-7  110.76598917

  2- 1- 8  111.49639380   2- 3- 9  111.28876910   2- 3-10  109.81937981   2- 3-11  110.64628255

  2- 4- 5  109.23946093   3- 2- 4  118.03985942   4- 5-12   98.70520730   6- 1- 7  108.98508551

  6- 1- 8  107.70161551   7- 1- 8  107.75843870   9- 3-10  109.12906284   9- 3-11  107.86459832

 10- 3-11  108.00686053

 NUCLEAR CHARGE:                   41
 NUMBER OF PRIMITIVE AOS:         184
 NUMBER OF SYMMETRY AOS:          179
 NUMBER OF CONTRACTIONS:          105   ( 105A   )
 NUMBER OF CORE ORBITALS:           5   (   5A   )
 NUMBER OF VALENCE ORBITALS:       27   (  27A   )


 NUCLEAR REPULSION ENERGY  183.23339462


 Eigenvalues of metric

         1 0.345E-02 0.435E-02 0.105E-01 0.141E-01 0.182E-01 0.214E-01 0.331E-01 0.345E-01


 Contracted 2-electron integrals neglected if value below      1.0D-16
 AO integral compression algorithm  1   Integral accuracy      1.0D-16

     127.664 MB (compressed) written to integral file ( 93.2%)

     Node minimum: 32.768 MB, node maximum: 57.410 MB


 NUMBER OF SORTED TWO-ELECTRON INTEGRALS:    5164320.     BUFFER LENGTH:  32768
 NUMBER OF SEGMENTS:   1  SEGMENT LENGTH:    5164320      RECORD LENGTH: 524288

 Memory used in sort:       5.72 MW

 SORT1 READ    17075332. AND WROTE     5135937. INTEGRALS IN     15 RECORDS. CPU TIME:     0.29 SEC, REAL TIME:     0.34 SEC
 SORT2 READ    15396717. AND WROTE    15487395. INTEGRALS IN    375 RECORDS. CPU TIME:     0.09 SEC, REAL TIME:     0.13 SEC

 Node minimum:     5160610.  Node maximum:     5164320. integrals

 OPERATOR DM      FOR CENTER  0  COORDINATES:    0.000000    0.000000    0.000000


 **********************************************************************************************************************************
 DATASETS  * FILE   NREC   LENGTH (MB)   RECORD NAMES
              1      18        3.17       500      610      700      900      950      970     1000      129      960     1100   
                                          VAR    BASINP    GEOM    SYMINP    ZMAT    AOBASIS   BASIS     P2S    ABASIS      S 
                                         1400     1410     1200     1210     1080     1600     1650     1700   
                                           T        V       H0       H01     AOSYM     SMH    MOLCAS    OPER   

 PROGRAMS   *        TOTAL       INT
 CPU TIMES  *         1.11      1.04
 REAL TIME  *         1.50 SEC
 DISK USED  *       319.12 MB      
 GA USED    *         0.00 MB       (max)       0.00 MB       (current)
 **********************************************************************************************************************************

1PROGRAM * RHF-SCF (OPEN SHELL)       Authors: W. Meyer, H.-J. Werner


 NUMBER OF ELECTRONS:      21+   20-    SPACE SYMMETRY=1    SPIN SYMMETRY: Doublet 
 CONVERGENCE THRESHOLDS:    1.00E-10 (Density)    1.00E-11 (Energy)
 MAX. NUMBER OF ITERATIONS:      200
 INTERPOLATION TYPE:            DIIS
 INTERPOLATION STEPS:              2 (START)      1 (STEP)
 LEVEL SHIFTS:                 -0.30 (CLOSED)  0.00 (OPEN) 



 Orbital guess generated from atomic densities. Full valence occupancy:   32

 Molecular orbital dump at record        2100.2

 ITERATION    DDIFF          GRAD             ENERGY        2-EL.EN.            DIPOLE MOMENTS         DIIS
    1      0.000D+00      0.000D+00      -267.17825348    555.837641    0.57178    0.04955   -0.74819    0
    2      0.000D+00      0.617D-02      -267.24895063    555.759085    0.41531   -0.13150   -0.59881    1
    3      0.928D-02      0.214D-02      -267.26113303    555.677018    0.39507   -0.05970   -0.62651    2
    4      0.336D-02      0.912D-03      -267.26474495    555.829459    0.38044   -0.09993   -0.64313    3
    5      0.186D-02      0.364D-03      -267.26531507    555.800933    0.38301   -0.09349   -0.63623    4
    6      0.793D-03      0.110D-03      -267.26539174    555.787195    0.38128   -0.09331   -0.63901    5
    7      0.277D-03      0.512D-04      -267.26541197    555.784192    0.38056   -0.09306   -0.63852    6
    8      0.144D-03      0.273D-04      -267.26541805    555.782250    0.38084   -0.09318   -0.63874    7
    9      0.926D-04      0.115D-04      -267.26541897    555.782562    0.38102   -0.09314   -0.63850    8
   10      0.366D-04      0.502D-05      -267.26541913    555.783175    0.38128   -0.09315   -0.63856    9
   11      0.147D-04      0.197D-05      -267.26541916    555.783016    0.38133   -0.09314   -0.63856    9
   12      0.652D-05      0.671D-06      -267.26541916    555.783150    0.38135   -0.09314   -0.63856    9
   13      0.227D-05      0.226D-06      -267.26541916    555.783066    0.38135   -0.09314   -0.63856    9
   14      0.632D-06      0.757D-07      -267.26541916    555.783075    0.38135   -0.09314   -0.63856    9
   15      0.193D-06      0.300D-07      -267.26541916    555.783071    0.38135   -0.09314   -0.63856    9
   16      0.823D-07      0.144D-07      -267.26541916    555.783072    0.38135   -0.09315   -0.63856    9
   17      0.372D-07      0.747D-08      -267.26541916    555.783072    0.38136   -0.09315   -0.63856    9
   18      0.221D-07      0.341D-08      -267.26541916    555.783072    0.38136   -0.09315   -0.63856    9
   19      0.114D-07      0.133D-08      -267.26541916    555.783072    0.38136   -0.09315   -0.63856    9
   20      0.444D-08      0.566D-09      -267.26541916    555.783072    0.38135   -0.09315   -0.63856    9
   21      0.165D-08      0.286D-09      -267.26541916    555.783072    0.38135   -0.09315   -0.63856    9
   22      0.752D-09      0.161D-09      -267.26541916    555.783072    0.38135   -0.09315   -0.63856    9
   23      0.445D-09      0.794D-10      -267.26541916    555.783072    0.38135   -0.09315   -0.63856    9
   24      0.263D-09      0.316D-10      -267.26541916    555.783072    0.38135   -0.09315   -0.63856    9
   25      0.931D-10      0.129D-10      -267.26541916    555.783072    0.38135   -0.09315   -0.63856    0

 Final alpha occupancy:  21
 Final beta  occupancy:  20

 !RHF STATE 1.1 Energy               -267.265419160684
 Nuclear energy                       183.23339462
 One-electron energy                 -728.39034992
 Two-electron energy                  277.89153614
 Virial quotient                       -1.00154406
 !RHF STATE 1.1 Dipole moment           0.38135494    -0.09314530    -0.63855765
 Dipole moment /Debye                   0.96924409    -0.23673622    -1.62294536

 Orbital energies:

         1.1          2.1          3.1          4.1          5.1          6.1          7.1          8.1          9.1         10.1
    -20.630450   -20.628796   -11.279244   -11.237914   -11.231990    -1.470193    -1.240759    -1.023307    -0.945453    -0.768529

        11.1         12.1         13.1         14.1         15.1         16.1         17.1         18.1         19.1         20.1
     -0.704664    -0.643048    -0.626769    -0.588747    -0.545172    -0.543612    -0.538987    -0.517087    -0.493031    -0.469785

        21.1         22.1         23.1
     -0.352204     0.181343     0.183575


 **********************************************************************************************************************************
 DATASETS  * FILE   NREC   LENGTH (MB)   RECORD NAMES
              1      18        3.17       500      610      700      900      950      970     1000      129      960     1100   
                                          VAR    BASINP    GEOM    SYMINP    ZMAT    AOBASIS   BASIS     P2S    ABASIS      S 
                                         1400     1410     1200     1210     1080     1600     1650     1700   
                                           T        V       H0       H01     AOSYM     SMH    MOLCAS    OPER   

              2       3        0.77       700     1000     2100   
                                         GEOM     BASIS     RHF  

 PROGRAMS   *        TOTAL       RHF       INT
 CPU TIMES  *         2.48      1.37      1.04
 REAL TIME  *         3.01 SEC
 DISK USED  *       335.69 MB      
 SF USED    *         0.04 MB      
 GA USED    *         0.00 MB       (max)       0.00 MB       (current)
 **********************************************************************************************************************************


1PROGRAM * CCSD (Unrestricted open-shell coupled cluster)     Authors: C. Hampel, H.-J. Werner, 1991, M. Deegan, P.J. Knowles, 1992


 Convergence thresholds:  THRVAR = 1.00D-08  THRDEN = 1.00D-10

 CCSD(T)     terms to be evaluated (factor= 1.000)


 Number of core orbitals:           5 (   5 )
 Number of closed-shell orbitals:  15 (  15 )
 Number of active  orbitals:        1 (   1 )
 Number of external orbitals:      84 (  84 )

 Memory could be reduced to 24.91 Mwords without degradation in triples

 Number of N-1 electron functions:              31
 Number of N-2 electron functions:             465
 Number of singly external CSFs:              2635
 Number of doubly external CSFs:           2537250
 Total number of CSFs:                     2539885

 Molecular orbitals read from record     2100.2  Type=RHF/CANONICAL (state 1.1)

 Integral transformation finished. Total CPU:   0.86 sec, npass=  1  Memory used:  12.63 MW

 Starting RMP2 calculation

 ITER.      SQ.NORM     CORR.ENERGY   TOTAL ENERGY   ENERGY CHANGE        DEN1      VAR(S)    VAR(P)  DIIS     TIME
   1      1.24300027    -0.78635357  -268.05177273    -0.78635357    -0.00304918  0.20D-04  0.11D-02  1  1     1.17
   2      1.24564102    -0.78964189  -268.05506105    -0.00328832    -0.00000475  0.54D-06  0.19D-05  2  2     1.44
   3      1.24570660    -0.78968397  -268.05510313    -0.00004208    -0.00000003  0.16D-07  0.68D-08  3  3     1.72
   4      1.24570756    -0.78968397  -268.05510313    -0.00000000    -0.00000000  0.27D-09  0.38D-10  4  4     2.02
   5      1.24570764    -0.78968400  -268.05510316    -0.00000003    -0.00000000  0.25D-11  0.65D-12  5  5     2.34
   6      1.24570765    -0.78968401  -268.05510317    -0.00000001    -0.00000000  0.28D-13  0.87D-14  6  6     2.69
   7      1.24570765    -0.78968401  -268.05510317     0.00000000    -0.00000000  0.47D-15  0.12D-15  6  1     3.05
   8      1.24570765    -0.78968401  -268.05510317     0.00000000    -0.00000000  0.60D-17  0.13D-17  6  2     3.40

 Norm of t1 vector:      0.03894807      S-energy:    -0.00227289      T1 diagnostic:  0.00055053
 Norm of t2 vector:      0.49415656      P-energy:    -0.78741112
                                         Alpha-Beta:  -0.59339143
                                         Alpha-Alpha: -0.10094161
                                         Beta-Beta:   -0.09307808

 Spin contamination <S**2-Sz**2-Sz>     0.00104121
  Reference energy                   -267.265419160683
  RHF-RMP2 correlation energy          -0.789684008911
 !RHF-RMP2 energy                    -268.055103169594

 Starting UCCSD calculation

 ITER.      SQ.NORM     CORR.ENERGY   TOTAL ENERGY   ENERGY CHANGE        DEN1      VAR(S)    VAR(P)  DIIS     TIME
   1      1.26277037    -0.80902613  -268.07444529    -0.80902613    -0.02515248  0.38D-02  0.59D-02  1  1     8.98
   2      1.29153798    -0.83643089  -268.10185005    -0.02740476    -0.00201076  0.22D-03  0.66D-03  2  2    14.53
   3      1.30147745    -0.84092762  -268.10634678    -0.00449673    -0.00032467  0.19D-03  0.56D-04  3  3    20.11
   4      1.30639161    -0.84240465  -268.10782381    -0.00147703    -0.00007212  0.43D-04  0.14D-04  4  4    25.72
   5      1.30912338    -0.84279294  -268.10821210    -0.00038829    -0.00002368  0.19D-04  0.32D-05  5  5    31.37
   6      1.31106429    -0.84299756  -268.10841672    -0.00020462    -0.00000646  0.42D-05  0.12D-05  6  6    35.98
   7      1.31201438    -0.84305639  -268.10847555    -0.00005882    -0.00000208  0.14D-05  0.37D-06  6  2    40.65
   8      1.31245629    -0.84309908  -268.10851824    -0.00004269    -0.00000065  0.45D-06  0.11D-06  6  1    45.33
   9      1.31264162    -0.84310366  -268.10852283    -0.00000458    -0.00000022  0.15D-06  0.35D-07  6  4    50.01
  10      1.31270480    -0.84310659  -268.10852575    -0.00000292    -0.00000005  0.35D-07  0.95D-08  6  3    54.69
  11      1.31273431    -0.84310533  -268.10852449     0.00000126    -0.00000002  0.13D-07  0.28D-08  6  5    59.37
  12      1.31274469    -0.84310507  -268.10852424     0.00000026    -0.00000000  0.26D-08  0.95D-09  6  6    64.03
  13      1.31274355    -0.84310416  -268.10852332     0.00000091    -0.00000000  0.96D-09  0.28D-09  6  2    68.71
  14      1.31273834    -0.84310332  -268.10852248     0.00000084    -0.00000000  0.21D-09  0.67D-10  6  1    73.42
  15      1.31273427    -0.84310273  -268.10852189     0.00000059    -0.00000000  0.78D-10  0.19D-10  6  4    78.11
  16      1.31273108    -0.84310235  -268.10852151     0.00000038    -0.00000000  0.28D-10  0.63D-11  6  3    82.80
  17      1.31272888    -0.84310211  -268.10852127     0.00000024    -0.00000000  0.10D-10  0.24D-11  6  5    87.49
  18      1.31272797    -0.84310205  -268.10852121     0.00000006    -0.00000000  0.41D-11  0.87D-12  6  6    92.16
  19      1.31272736    -0.84310201  -268.10852117     0.00000003    -0.00000000  0.16D-11  0.37D-12  6  2    96.85
  20      1.31272704    -0.84310200  -268.10852116     0.00000001    -0.00000000  0.60D-12  0.13D-12  6  1   101.54
  21      1.31272688    -0.84310199  -268.10852115     0.00000001    -0.00000000  0.28D-12  0.58D-13  6  4   106.21
  22      1.31272676    -0.84310198  -268.10852114     0.00000001    -0.00000000  0.74D-13  0.21D-13  6  3   110.93
  23      1.31272670    -0.84310198  -268.10852114     0.00000000    -0.00000000  0.21D-13  0.63D-14  6  5   115.62
  24      1.31272669    -0.84310198  -268.10852114    -0.00000000    -0.00000000  0.67D-14  0.23D-14  6  6   120.31
  25      1.31272670    -0.84310198  -268.10852114    -0.00000000    -0.00000000  0.21D-14  0.52D-15  6  2   124.99
  26      1.31272670    -0.84310198  -268.10852114    -0.00000000    -0.00000000  0.77D-15  0.15D-15  6  1   129.66
  27      1.31272671    -0.84310198  -268.10852114    -0.00000000    -0.00000000  0.20D-15  0.63D-16  6  3   134.34
  28      1.31272672    -0.84310198  -268.10852114    -0.00000000    -0.00000000  0.30D-16  0.11D-16  6  4   139.03
  29      1.31272672    -0.84310198  -268.10852115    -0.00000000    -0.00000000  0.71D-17  0.29D-17  6  5   143.72
  30      1.31272672    -0.84310198  -268.10852115    -0.00000000    -0.00000000  0.15D-17  0.54D-18  6  6   148.73
  31      1.31272672    -0.84310198  -268.10852115    -0.00000000    -0.00000000  0.35D-18  0.10D-18  6  2   153.42

 Norm of t1 vector:      0.13874172      S-energy:    -0.00282299      T1 diagnostic:  0.01617097
                                                                       D1 diagnostic:  0.06281875
 Norm of t2 vector:      0.54173560      P-energy:    -0.84027899
                                         Alpha-Beta:  -0.66483048
                                         Alpha-Alpha: -0.09147666
                                         Beta-Beta:   -0.08397184

 Spin contamination <S**2-Sz**2-Sz>     0.00217450

 Memory could be reduced to 28.85 Mwords without degradation in triples
 

 RESULTS
 =======

  Reference energy                   -267.265419160683
  UCCSD singles energy                 -0.002822994315
  UCCSD pair energy                    -0.840278990255
  UCCSD correlation energy             -0.843101984570
  Triples (T) contribution             -0.024972929019
  Total correlation energy             -0.868074913589
 
  RHF-UCCSD energy                   -268.108521145253
  RHF-UCCSD[T] energy                -268.134829823851
  RHF-UCCSD-T energy                 -268.133072662853
 !RHF-UCCSD(T) energy                -268.133494074272

 Program statistics:

 Available memory in ccsd:               999997692
 Min. memory needed in ccsd:               7337057
 Max. memory used in ccsd:                10523002
 Max. memory used in cckext:              10867977 (31 integral passes)
 Max. memory used in cckint:              12633073 ( 1 integral passes)



 **********************************************************************************************************************************
 DATASETS  * FILE   NREC   LENGTH (MB)   RECORD NAMES
              1      18        3.17       500      610      700      900      950      970     1000      129      960     1100   
                                          VAR    BASINP    GEOM    SYMINP    ZMAT    AOBASIS   BASIS     P2S    ABASIS      S 
                                         1400     1410     1200     1210     1080     1600     1650     1700   
                                           T        V       H0       H01     AOSYM     SMH    MOLCAS    OPER   

              2       3        0.77       700     1000     2100   
                                         GEOM     BASIS     RHF  

 PROGRAMS   *        TOTAL  UCCSD(T)       RHF       INT
 CPU TIMES  *       191.81    189.33      1.37      1.04
 REAL TIME  *       201.23 SEC
 DISK USED  *         1.30 GB      
 SF USED    *       553.73 MB      
 GA USED    *         0.00 MB       (max)       0.00 MB       (current)
 **********************************************************************************************************************************

        UCCSD(T)        RHF-SCF 
   -268.13349407   -267.26541916
 **********************************************************************************************************************************
 Variable memory released
