
 Primary working directories    : /tmp/320938.910.gen4.q
 Secondary working directories  : /tmp/320938.910.gen4.q
 Wavefunction directory         : /home/vulcan/mel64643/wfu/
 Main file repository           : /tmp/320938.910.gen4.q/

 ARCHNAME  : Linux/x86_64
 FC        : /opt/intel/compilers_and_libraries_2016.1.150/linux/bin/intel64/ifort
 FCVERSION : 16.0.1
 BLASLIB   : -mkl
 id        : ccgc

 Nodes     nprocs
 n038         3
 Number of processes for MPI-2 version of Molpro:   nprocs(total)=    4   nprocs(compute)=    3   nprocs(helper)=    1
 ga_uses_ma=false, calling ma_init with nominal heap.
 GA-space will be limited to   8.0 MW (determined by -G option)

 Using customized tuning parameters: mindgm=10; mindgv=16; mindgc=4; mindgr=1; noblas=0; mincuda=1000; minvec=7
 default implementation of scratch files=sf  

 ***,Frequencies for min3
 memory,1000,m
 gthresh,energy=1.0d-10,orbital=1.0d-10,oneint=1.0d-16,twoint=1.0d-16,optgrad=1.0d-6,compress=1.0d-13
 geomtyp=xyz
 
  geometry = {
  12
  arbitrary comment
     C    1.776964391707    0.711398808326   -0.047331391796
     C    0.491811976407   -0.059338630746   -0.196506267364
     C    0.450236071263   -1.536514950640    0.101473123832
     O   -0.560703746813    0.727092075810    0.254416900230
     O   -1.837824996486    0.092198790419   -0.120526099757
     H    2.585391507233    0.211062308272   -0.611488153833
     H    1.660554467396    1.742557852714   -0.426639745241
     H    2.095198973030    0.773753459962    1.017582670297
     H   -0.505002968035   -1.982944682256   -0.219997687923
     H    1.281755607558   -2.047263924614   -0.418819747357
     H    0.561161478621   -1.719193242178    1.196582335475
     H   -1.987482645596    0.550339097994   -0.967053704247
  }
 
 basis=cc-pvdz
 {rhf;maxit,200}
 {uccsd(t);maxit,200}

 Variables initialized (661), CPU time= 0.01 sec
 Commands  initialized (458), CPU time= 0.00 sec, 486 directives.
 Default parameters read. Elapsed time= 0.07 sec

 Checking input...
 Passed
1


                                         ***  PROGRAM SYSTEM MOLPRO  ***
                         Copyright, University College Cardiff Consultants Limited, 2008

                                    Version 2010.1 linked May 16 2016 07:17:05


 **********************************************************************************************************************************
 LABEL *   Frequencies for min3                                                          
 Linux-4.4.3/n038(x86_64) 64 bit mpp version                                             DATE: 07-Mar-20          TIME: 06:19:20  
 **********************************************************************************************************************************

 SHA1:             9e8077add272b0f3cad6f7df79ec5211205f459d
 **********************************************************************************************************************************

 THRESHOLDS:

 ZERO    =  1.00D-12  ONEINT  =  1.00D-16  TWOINT  =  1.00D-16  PREFAC  =  1.00D-14  LOCALI  =  1.00D-09  EORDER  =  1.00D-04
 ENERGY  =  1.00D-10  ETEST   =  0.00D+00  EDENS   =  0.00D+00  THRDEDEF=  1.00D-06  GRADIENT=  1.00D-02  STEP    =  1.00D-03
 ORBITAL =  1.00D-10  CIVEC   =  1.00D-05  COEFF   =  1.00D-04  PRINTCI =  5.00D-02  PUNCHCI =  9.90D+01  OPTGRAD =  1.00D-06
 OPTENERG=  1.00D-06  OPTSTEP =  3.00D-04  THRGRAD =  1.00D-10  COMPRESS=  1.00D-13  VARMIN  =  1.00D-07  VARMAX  =  1.00D-03
 THRDOUB =  0.00D+00  THRDIV  =  1.00D-05  THRRED  =  1.00D-07  THRPSP  =  1.00D+00  THRDC   =  1.00D-10  THRCS   =  1.00D-10
 THRNRM  =  1.00D-08  THREQ   =  0.00D+00  THRDE   =  1.00D+00  THRREF  =  1.00D-05  SPARFAC =  1.00D+00  THRDLP  =  1.00D-07
 THRDIA  =  1.00D-10  THRDLS  =  1.00D-07  THRGPS  =  0.00D+00  THRKEX  =  0.00D+00  THRDIS  =  2.00D-01  THRVAR  =  1.00D-10
 THRLOC  =  1.00D-06  THRGAP  =  1.00D-06  THRLOCT = -1.00D+00  THRGAPT = -1.00D+00  THRORB  =  1.00D-06  THRMLTP =  0.00D+00
 THRCPQCI=  1.00D-10  KEXTA   =  0.00D+00  THRCOARS=  0.00D+00  SYMTOL  =  1.00D-06  GRADTOL =  1.00D-06  THROVL  =  1.00D-08
 THRORTH =  1.00D-08  GRID    =  1.00D-06  GRIDMAX =  1.00D-03  DTMAX   =  0.00D+00

 SETTING GEOMTYP        =    XYZ

 Variable memory set to 1000000000 words,  buffer space   230000 words

 SETTING BASIS          =    CC-PVDZ


 Recomputing integrals since basis changed


 Using spherical harmonics

 Library entry C      S cc-pVDZ              selected for orbital group  1
 Library entry C      P cc-pVDZ              selected for orbital group  1
 Library entry C      D cc-pVDZ              selected for orbital group  1
 Library entry O      S cc-pVDZ              selected for orbital group  2
 Library entry O      P cc-pVDZ              selected for orbital group  2
 Library entry O      D cc-pVDZ              selected for orbital group  2
 Library entry H      S cc-pVDZ              selected for orbital group  3
 Library entry H      P cc-pVDZ              selected for orbital group  3

1PROGRAM * SEWARD (Integral evaluation for generally contracted gaussian basis sets)     Author: Roland Lindh, 1990

 Geometry written to block  1 of record 700


 Point group  C1  



 ATOMIC COORDINATES

 NR  ATOM    CHARGE       X              Y              Z

   1  C       6.00    3.357976046    1.344348918   -0.089443368
   2  C       6.00    0.929389944   -0.112133761   -0.371343028
   3  C       6.00    0.850822869   -2.903592454    0.191756414
   4  O       8.00   -1.059576522    1.374004896    0.480778265
   5  O       8.00   -3.472985921    0.174230464   -0.227761320
   6  H       1.00    4.885681891    0.398849959   -1.155545143
   7  H       1.00    3.137993170    3.292957110   -0.806232275
   8  H       1.00    3.959352250    1.462182133    1.922952563
   9  H       1.00   -0.954317305   -3.747222383   -0.415735380
  10  H       1.00    2.422167066   -3.868768136   -0.791454621
  11  H       1.00    1.060441510   -3.248804395    2.261212908
  12  H       1.00   -3.755797891    1.039990175   -1.827466655

 Bond lengths in Bohr (Angstrom)

 1-2  2.845846037  1-6  2.089120970  1-7  2.087882346  1-8  2.103633853  2-3  2.848770857
     ( 1.505956863)     ( 1.105515204)     ( 1.104859752)     ( 1.113195091)     ( 1.507504611)

  2- 4  2.625015506   3- 9  2.083095962   3-10  2.089830285   3-11  2.108497436   4- 5  2.786760118
       ( 1.389098379)       ( 1.102326907)       ( 1.105890558)       ( 1.115768789)       ( 1.474689941)

  5-12  1.840809509
       ( 0.974114438)

 Bond angles

  1-2-3  120.36135121   1-2-4  108.94734199   2-1-6  109.99087843   2-1-7  110.71577544

  2- 1- 8  111.55459802   2- 3- 9  111.29042526   2- 3-10  109.80499254   2- 3-11  110.59087317

  2- 4- 5  109.26340169   3- 2- 4  118.01439057   4- 5-12   98.71499636   6- 1- 7  108.91986477

  6- 1- 8  107.72677236   7- 1- 8  107.83409406   9- 3-10  109.10654020   9- 3-11  107.82277292

 10- 3-11  108.14342606

 NUCLEAR CHARGE:                   41
 NUMBER OF PRIMITIVE AOS:         184
 NUMBER OF SYMMETRY AOS:          179
 NUMBER OF CONTRACTIONS:          105   ( 105A   )
 NUMBER OF CORE ORBITALS:           5   (   5A   )
 NUMBER OF VALENCE ORBITALS:       27   (  27A   )


 NUCLEAR REPULSION ENERGY  183.21869041


 Eigenvalues of metric

         1 0.345E-02 0.435E-02 0.105E-01 0.141E-01 0.182E-01 0.214E-01 0.331E-01 0.346E-01


 Contracted 2-electron integrals neglected if value below      1.0D-16
 AO integral compression algorithm  1   Integral accuracy      1.0D-16

     127.402 MB (compressed) written to integral file ( 93.4%)

     Node minimum: 41.681 MB, node maximum: 43.778 MB


 NUMBER OF SORTED TWO-ELECTRON INTEGRALS:    5164320.     BUFFER LENGTH:  32768
 NUMBER OF SEGMENTS:   1  SEGMENT LENGTH:    5164320      RECORD LENGTH: 524288

 Memory used in sort:       5.72 MW

 SORT1 READ    17075251. AND WROTE     5135902. INTEGRALS IN     15 RECORDS. CPU TIME:     0.24 SEC, REAL TIME:     0.28 SEC
 SORT2 READ    15396645. AND WROTE    15487395. INTEGRALS IN    477 RECORDS. CPU TIME:     0.07 SEC, REAL TIME:     0.12 SEC

 Node minimum:     5160610.  Node maximum:     5164320. integrals

 OPERATOR DM      FOR CENTER  0  COORDINATES:    0.000000    0.000000    0.000000


 **********************************************************************************************************************************
 DATASETS  * FILE   NREC   LENGTH (MB)   RECORD NAMES
              1      18        3.17       500      610      700      900      950      970     1000      129      960     1100   
                                          VAR    BASINP    GEOM    SYMINP    ZMAT    AOBASIS   BASIS     P2S    ABASIS      S 
                                         1400     1410     1200     1210     1080     1600     1650     1700   
                                           T        V       H0       H01     AOSYM     SMH    MOLCAS    OPER   

 PROGRAMS   *        TOTAL       INT
 CPU TIMES  *         1.32      1.22
 REAL TIME  *         1.62 SEC
 DISK USED  *       305.17 MB      
 GA USED    *         0.00 MB       (max)       0.00 MB       (current)
 **********************************************************************************************************************************

1PROGRAM * RHF-SCF (OPEN SHELL)       Authors: W. Meyer, H.-J. Werner


 NUMBER OF ELECTRONS:      21+   20-    SPACE SYMMETRY=1    SPIN SYMMETRY: Doublet 
 CONVERGENCE THRESHOLDS:    1.00E-10 (Density)    1.00E-11 (Energy)
 MAX. NUMBER OF ITERATIONS:      200
 INTERPOLATION TYPE:            DIIS
 INTERPOLATION STEPS:              2 (START)      1 (STEP)
 LEVEL SHIFTS:                 -0.30 (CLOSED)  0.00 (OPEN) 



 Orbital guess generated from atomic densities. Full valence occupancy:   32

 Molecular orbital dump at record        2100.2

 ITERATION    DDIFF          GRAD             ENERGY        2-EL.EN.            DIPOLE MOMENTS         DIIS
    1      0.000D+00      0.000D+00      -267.17821056    555.808345    0.57136    0.05040   -0.74944    0
    2      0.000D+00      0.617D-02      -267.24887537    555.731151    0.41398   -0.13009   -0.59887    1
    3      0.927D-02      0.214D-02      -267.26105994    555.648863    0.39347   -0.05821   -0.62644    2
    4      0.336D-02      0.912D-03      -267.26467566    555.801171    0.37865   -0.09835   -0.64291    3
    5      0.186D-02      0.364D-03      -267.26524695    555.772546    0.38111   -0.09188   -0.63594    4
    6      0.793D-03      0.110D-03      -267.26532391    555.758819    0.37935   -0.09168   -0.63870    5
    7      0.278D-03      0.513D-04      -267.26534421    555.755795    0.37862   -0.09141   -0.63820    6
    8      0.144D-03      0.273D-04      -267.26535031    555.753856    0.37889   -0.09152   -0.63842    7
    9      0.927D-04      0.115D-04      -267.26535124    555.754166    0.37907   -0.09148   -0.63818    8
   10      0.367D-04      0.503D-05      -267.26535139    555.754780    0.37933   -0.09149   -0.63824    9
   11      0.147D-04      0.197D-05      -267.26535142    555.754621    0.37938   -0.09149   -0.63825    9
   12      0.652D-05      0.671D-06      -267.26535142    555.754756    0.37940   -0.09149   -0.63824    9
   13      0.227D-05      0.226D-06      -267.26535142    555.754671    0.37940   -0.09149   -0.63824    9
   14      0.631D-06      0.758D-07      -267.26535142    555.754680    0.37940   -0.09149   -0.63824    9
   15      0.193D-06      0.300D-07      -267.26535142    555.754676    0.37940   -0.09149   -0.63824    9
   16      0.824D-07      0.145D-07      -267.26535142    555.754678    0.37940   -0.09149   -0.63824    9
   17      0.374D-07      0.749D-08      -267.26535142    555.754678    0.37940   -0.09149   -0.63824    9
   18      0.222D-07      0.341D-08      -267.26535142    555.754678    0.37940   -0.09149   -0.63824    9
   19      0.114D-07      0.133D-08      -267.26535142    555.754678    0.37940   -0.09149   -0.63824    9
   20      0.444D-08      0.568D-09      -267.26535142    555.754678    0.37940   -0.09149   -0.63824    9
   21      0.166D-08      0.287D-09      -267.26535142    555.754678    0.37940   -0.09149   -0.63824    9
   22      0.756D-09      0.162D-09      -267.26535142    555.754678    0.37940   -0.09149   -0.63824    9
   23      0.446D-09      0.797D-10      -267.26535142    555.754678    0.37940   -0.09149   -0.63824    9
   24      0.264D-09      0.318D-10      -267.26535142    555.754678    0.37940   -0.09149   -0.63824    9
   25      0.934D-10      0.130D-10      -267.26535142    555.754678    0.37940   -0.09149   -0.63824    0

 Final alpha occupancy:  21
 Final beta  occupancy:  20

 !RHF STATE 1.1 Energy               -267.265351424511
 Nuclear energy                       183.21869041
 One-electron energy                 -728.36138068
 Two-electron energy                  277.87733885
 Virial quotient                       -1.00156454
 !RHF STATE 1.1 Dipole moment           0.37940432    -0.09149252    -0.63824161
 Dipole moment /Debye                   0.96428644    -0.23253556    -1.62214211

 Orbital energies:

         1.1          2.1          3.1          4.1          5.1          6.1          7.1          8.1          9.1         10.1
    -20.630508   -20.628875   -11.279268   -11.237866   -11.232464    -1.470327    -1.240943    -1.023059    -0.945191    -0.768502

        11.1         12.1         13.1         14.1         15.1         16.1         17.1         18.1         19.1         20.1
     -0.704651    -0.643037    -0.626751    -0.588873    -0.544914    -0.543228    -0.538917    -0.516985    -0.493161    -0.469723

        21.1         22.1         23.1
     -0.352219     0.181284     0.183509


 **********************************************************************************************************************************
 DATASETS  * FILE   NREC   LENGTH (MB)   RECORD NAMES
              1      18        3.17       500      610      700      900      950      970     1000      129      960     1100   
                                          VAR    BASINP    GEOM    SYMINP    ZMAT    AOBASIS   BASIS     P2S    ABASIS      S 
                                         1400     1410     1200     1210     1080     1600     1650     1700   
                                           T        V       H0       H01     AOSYM     SMH    MOLCAS    OPER   

              2       3        0.77       700     1000     2100   
                                         GEOM     BASIS     RHF  

 PROGRAMS   *        TOTAL       RHF       INT
 CPU TIMES  *         2.62      1.30      1.22
 REAL TIME  *         3.12 SEC
 DISK USED  *       321.74 MB      
 SF USED    *         0.04 MB      
 GA USED    *         0.00 MB       (max)       0.00 MB       (current)
 **********************************************************************************************************************************


1PROGRAM * CCSD (Unrestricted open-shell coupled cluster)     Authors: C. Hampel, H.-J. Werner, 1991, M. Deegan, P.J. Knowles, 1992


 Convergence thresholds:  THRVAR = 1.00D-08  THRDEN = 1.00D-10

 CCSD(T)     terms to be evaluated (factor= 1.000)


 Number of core orbitals:           5 (   5 )
 Number of closed-shell orbitals:  15 (  15 )
 Number of active  orbitals:        1 (   1 )
 Number of external orbitals:      84 (  84 )

 Memory could be reduced to 24.91 Mwords without degradation in triples

 Number of N-1 electron functions:              31
 Number of N-2 electron functions:             465
 Number of singly external CSFs:              2635
 Number of doubly external CSFs:           2537250
 Total number of CSFs:                     2539885

 Molecular orbitals read from record     2100.2  Type=RHF/CANONICAL (state 1.1)

 Integral transformation finished. Total CPU:   1.11 sec, npass=  1  Memory used:  12.63 MW

 Starting RMP2 calculation

 ITER.      SQ.NORM     CORR.ENERGY   TOTAL ENERGY   ENERGY CHANGE        DEN1      VAR(S)    VAR(P)  DIIS     TIME
   1      1.24306113    -0.78639892  -268.05175034    -0.78639892    -0.00305038  0.20D-04  0.11D-02  1  1     1.48
   2      1.24570351    -0.78968858  -268.05504000    -0.00328966    -0.00000475  0.54D-06  0.19D-05  2  2     1.81
   3      1.24576913    -0.78973068  -268.05508210    -0.00004210    -0.00000003  0.16D-07  0.68D-08  3  3     2.18
   4      1.24577009    -0.78973068  -268.05508211    -0.00000000    -0.00000000  0.27D-09  0.38D-10  4  4     2.58
   5      1.24577017    -0.78973072  -268.05508214    -0.00000003    -0.00000000  0.25D-11  0.65D-12  5  5     3.01
   6      1.24577018    -0.78973072  -268.05508215    -0.00000001    -0.00000000  0.28D-13  0.87D-14  6  6     3.47
   7      1.24577018    -0.78973072  -268.05508215     0.00000000    -0.00000000  0.47D-15  0.12D-15  6  1     3.92
   8      1.24577018    -0.78973072  -268.05508215     0.00000000    -0.00000000  0.60D-17  0.13D-17  6  2     4.37

 Norm of t1 vector:      0.03893952      S-energy:    -0.00227193      T1 diagnostic:  0.00055064
 Norm of t2 vector:      0.49422049      P-energy:    -0.78745879
                                         Alpha-Beta:  -0.59343811
                                         Alpha-Alpha: -0.10094146
                                         Beta-Beta:   -0.09307922

 Spin contamination <S**2-Sz**2-Sz>     0.00104083
  Reference energy                   -267.265351424511
  RHF-RMP2 correlation energy          -0.789730720822
 !RHF-RMP2 energy                    -268.055082145333

 Starting UCCSD calculation

 ITER.      SQ.NORM     CORR.ENERGY   TOTAL ENERGY   ENERGY CHANGE        DEN1      VAR(S)    VAR(P)  DIIS     TIME
   1      1.26284441    -0.80907304  -268.07442446    -0.80907304    -0.02516012  0.38D-02  0.59D-02  1  1    11.10
   2      1.29163023    -0.83648746  -268.10183888    -0.02741442    -0.00201174  0.22D-03  0.66D-03  2  2    17.85
   3      1.30157758    -0.84098768  -268.10633911    -0.00450023    -0.00032477  0.19D-03  0.56D-04  3  3    24.61
   4      1.30649428    -0.84246546  -268.10781689    -0.00147778    -0.00007215  0.43D-04  0.14D-04  4  4    31.38
   5      1.30922729    -0.84285390  -268.10820532    -0.00038844    -0.00002370  0.19D-04  0.32D-05  5  5    38.18
   6      1.31117004    -0.84305865  -268.10841008    -0.00020475    -0.00000647  0.42D-05  0.12D-05  6  6    44.78
   7      1.31212136    -0.84311754  -268.10846896    -0.00005888    -0.00000208  0.14D-05  0.37D-06  6  2    51.62
   8      1.31256392    -0.84316027  -268.10851169    -0.00004273    -0.00000065  0.45D-06  0.11D-06  6  1    58.47
   9      1.31274987    -0.84316489  -268.10851631    -0.00000461    -0.00000022  0.15D-06  0.35D-07  6  4    65.30
  10      1.31281334    -0.84316782  -268.10851925    -0.00000294    -0.00000005  0.35D-07  0.96D-08  6  3    72.14
  11      1.31284298    -0.84316657  -268.10851800     0.00000125    -0.00000002  0.13D-07  0.28D-08  6  5    78.95
  12      1.31285340    -0.84316631  -268.10851774     0.00000026    -0.00000000  0.26D-08  0.96D-09  6  6    85.83
  13      1.31285225    -0.84316539  -268.10851682     0.00000092    -0.00000000  0.97D-09  0.29D-09  6  2    92.66
  14      1.31284703    -0.84316455  -268.10851597     0.00000085    -0.00000000  0.21D-09  0.68D-10  6  1    99.51
  15      1.31284295    -0.84316396  -268.10851538     0.00000059    -0.00000000  0.78D-10  0.19D-10  6  4   106.35
  16      1.31283976    -0.84316357  -268.10851500     0.00000038    -0.00000000  0.28D-10  0.63D-11  6  3   113.19
  17      1.31283755    -0.84316334  -268.10851476     0.00000024    -0.00000000  0.10D-10  0.24D-11  6  5   120.02
  18      1.31283664    -0.84316328  -268.10851470     0.00000006    -0.00000000  0.41D-11  0.87D-12  6  6   126.84
  19      1.31283603    -0.84316324  -268.10851467     0.00000003    -0.00000000  0.16D-11  0.37D-12  6  2   133.69
  20      1.31283571    -0.84316323  -268.10851465     0.00000001    -0.00000000  0.60D-12  0.13D-12  6  1   140.53
  21      1.31283555    -0.84316322  -268.10851464     0.00000001    -0.00000000  0.28D-12  0.58D-13  6  4   147.36
  22      1.31283542    -0.84316321  -268.10851464     0.00000001    -0.00000000  0.74D-13  0.22D-13  6  3   154.17
  23      1.31283536    -0.84316321  -268.10851463     0.00000000    -0.00000000  0.22D-13  0.63D-14  6  5   160.98
  24      1.31283536    -0.84316321  -268.10851463    -0.00000000    -0.00000000  0.68D-14  0.23D-14  6  6   167.80
  25      1.31283536    -0.84316321  -268.10851463    -0.00000000    -0.00000000  0.21D-14  0.53D-15  6  2   174.65
  26      1.31283537    -0.84316321  -268.10851464    -0.00000000    -0.00000000  0.77D-15  0.15D-15  6  1   181.45
  27      1.31283538    -0.84316321  -268.10851464    -0.00000000    -0.00000000  0.20D-15  0.63D-16  6  3   188.28
  28      1.31283538    -0.84316321  -268.10851464    -0.00000000    -0.00000000  0.30D-16  0.11D-16  6  4   195.71
  29      1.31283539    -0.84316321  -268.10851464    -0.00000000    -0.00000000  0.71D-17  0.29D-17  6  5   205.54
  30      1.31283539    -0.84316321  -268.10851464    -0.00000000    -0.00000000  0.15D-17  0.54D-18  6  6   215.44
  31      1.31283539    -0.84316321  -268.10851464    -0.00000000    -0.00000000  0.35D-18  0.10D-18  6  2   224.93

 Norm of t1 vector:      0.13876274      S-energy:    -0.00282182      T1 diagnostic:  0.01617406
                                                                       D1 diagnostic:  0.06282381
 Norm of t2 vector:      0.54183050      P-energy:    -0.84034139
                                         Alpha-Beta:  -0.66489900
                                         Alpha-Alpha: -0.09147309
                                         Beta-Beta:   -0.08396931

 Spin contamination <S**2-Sz**2-Sz>     0.00217597

 Memory could be reduced to 28.85 Mwords without degradation in triples
 

 RESULTS
 =======

  Reference energy                   -267.265351424511
  UCCSD singles energy                 -0.002821822991
  UCCSD pair energy                    -0.840341389074
  UCCSD correlation energy             -0.843163212065
  Triples (T) contribution             -0.024980062912
  Total correlation energy             -0.868143274977
 
  RHF-UCCSD energy                   -268.108514636576
  RHF-UCCSD[T] energy                -268.134830682667
  RHF-UCCSD-T energy                 -268.133073300105
 !RHF-UCCSD(T) energy                -268.133494699488

 Program statistics:

 Available memory in ccsd:               999997692
 Min. memory needed in ccsd:               7337057
 Max. memory used in ccsd:                10523002
 Max. memory used in cckext:              10867977 (31 integral passes)
 Max. memory used in cckint:              12633073 ( 1 integral passes)



 **********************************************************************************************************************************
 DATASETS  * FILE   NREC   LENGTH (MB)   RECORD NAMES
              1      18        3.17       500      610      700      900      950      970     1000      129      960     1100   
                                          VAR    BASINP    GEOM    SYMINP    ZMAT    AOBASIS   BASIS     P2S    ABASIS      S 
                                         1400     1410     1200     1210     1080     1600     1650     1700   
                                           T        V       H0       H01     AOSYM     SMH    MOLCAS    OPER   

              2       3        0.77       700     1000     2100   
                                         GEOM     BASIS     RHF  

 PROGRAMS   *        TOTAL  UCCSD(T)       RHF       INT
 CPU TIMES  *       288.76    286.13      1.30      1.22
 REAL TIME  *       304.13 SEC
 DISK USED  *         1.29 GB      
 SF USED    *       553.73 MB      
 GA USED    *         0.00 MB       (max)       0.00 MB       (current)
 **********************************************************************************************************************************

        UCCSD(T)        RHF-SCF 
   -268.13349470   -267.26535142
 **********************************************************************************************************************************
 Variable memory released
