
 Primary working directories    : /tmp/320938.248.gen6.q
 Secondary working directories  : /tmp/320938.248.gen6.q
 Wavefunction directory         : /home/vulcan/mel64643/wfu/
 Main file repository           : /tmp/320938.248.gen6.q/

 ARCHNAME  : Linux/x86_64
 FC        : /opt/intel/compilers_and_libraries_2016.1.150/linux/bin/intel64/ifort
 FCVERSION : 16.0.1
 BLASLIB   : -mkl
 id        : ccgc

 Nodes     nprocs
 n083         3
 Number of processes for MPI-2 version of Molpro:   nprocs(total)=    4   nprocs(compute)=    3   nprocs(helper)=    1
 ga_uses_ma=false, calling ma_init with nominal heap.
 GA-space will be limited to   8.0 MW (determined by -G option)

 Using customized tuning parameters: mindgm=10; mindgv=16; mindgc=4; mindgr=1; noblas=0; mincuda=1000; minvec=7
 default implementation of scratch files=sf  

 ***,Frequencies for min3
 memory,1000,m
 gthresh,energy=1.0d-10,orbital=1.0d-10,oneint=1.0d-16,twoint=1.0d-16,optgrad=1.0d-6,compress=1.0d-13
 geomtyp=xyz
 
  geometry = {
  12
  arbitrary comment
     C    1.776964391707    0.711398808326   -0.047331391796
     C    0.491811976407   -0.059992870174   -0.196493901896
     C    0.450332819107   -1.536294019674    0.101417522804
     O   -0.560767745493    0.727234937526    0.254453964104
     O   -1.837840335593    0.092269037726   -0.120531795196
     H    2.585373063107    0.211465914126   -0.611440883996
     H    1.660426393907    1.742887987326   -0.426532369096
     H    2.095123485707    0.774048097326    1.017650404504
     H   -0.504871383593   -1.980512336509   -0.220087664500
     H    1.282006216468   -2.047818337632   -0.417123270289
     H    0.561826983067   -1.719851479301    1.194761797102
     H   -1.988201150214    0.549868159346   -0.967045087996
  }
 
 basis=cc-pvdz
 {rhf;maxit,200}
 {uccsd(t);maxit,200}

 Variables initialized (661), CPU time= 0.00 sec
 Commands  initialized (458), CPU time= 0.01 sec, 486 directives.
 Default parameters read. Elapsed time= 0.06 sec

 Checking input...
 Passed
1


                                         ***  PROGRAM SYSTEM MOLPRO  ***
                         Copyright, University College Cardiff Consultants Limited, 2008

                                    Version 2010.1 linked May 16 2016 07:17:05


 **********************************************************************************************************************************
 LABEL *   Frequencies for min3                                                          
 Linux-4.4.3/n083(x86_64) 64 bit mpp version                                             DATE: 07-Mar-20          TIME: 02:24:49  
 **********************************************************************************************************************************

 SHA1:             9e8077add272b0f3cad6f7df79ec5211205f459d
 **********************************************************************************************************************************

 THRESHOLDS:

 ZERO    =  1.00D-12  ONEINT  =  1.00D-16  TWOINT  =  1.00D-16  PREFAC  =  1.00D-14  LOCALI  =  1.00D-09  EORDER  =  1.00D-04
 ENERGY  =  1.00D-10  ETEST   =  0.00D+00  EDENS   =  0.00D+00  THRDEDEF=  1.00D-06  GRADIENT=  1.00D-02  STEP    =  1.00D-03
 ORBITAL =  1.00D-10  CIVEC   =  1.00D-05  COEFF   =  1.00D-04  PRINTCI =  5.00D-02  PUNCHCI =  9.90D+01  OPTGRAD =  1.00D-06
 OPTENERG=  1.00D-06  OPTSTEP =  3.00D-04  THRGRAD =  1.00D-10  COMPRESS=  1.00D-13  VARMIN  =  1.00D-07  VARMAX  =  1.00D-03
 THRDOUB =  0.00D+00  THRDIV  =  1.00D-05  THRRED  =  1.00D-07  THRPSP  =  1.00D+00  THRDC   =  1.00D-10  THRCS   =  1.00D-10
 THRNRM  =  1.00D-08  THREQ   =  0.00D+00  THRDE   =  1.00D+00  THRREF  =  1.00D-05  SPARFAC =  1.00D+00  THRDLP  =  1.00D-07
 THRDIA  =  1.00D-10  THRDLS  =  1.00D-07  THRGPS  =  0.00D+00  THRKEX  =  0.00D+00  THRDIS  =  2.00D-01  THRVAR  =  1.00D-10
 THRLOC  =  1.00D-06  THRGAP  =  1.00D-06  THRLOCT = -1.00D+00  THRGAPT = -1.00D+00  THRORB  =  1.00D-06  THRMLTP =  0.00D+00
 THRCPQCI=  1.00D-10  KEXTA   =  0.00D+00  THRCOARS=  0.00D+00  SYMTOL  =  1.00D-06  GRADTOL =  1.00D-06  THROVL  =  1.00D-08
 THRORTH =  1.00D-08  GRID    =  1.00D-06  GRIDMAX =  1.00D-03  DTMAX   =  0.00D+00

 SETTING GEOMTYP        =    XYZ

 Variable memory set to 1000000000 words,  buffer space   230000 words

 SETTING BASIS          =    CC-PVDZ


 Recomputing integrals since basis changed


 Using spherical harmonics

 Library entry C      S cc-pVDZ              selected for orbital group  1
 Library entry C      P cc-pVDZ              selected for orbital group  1
 Library entry C      D cc-pVDZ              selected for orbital group  1
 Library entry O      S cc-pVDZ              selected for orbital group  2
 Library entry O      P cc-pVDZ              selected for orbital group  2
 Library entry O      D cc-pVDZ              selected for orbital group  2
 Library entry H      S cc-pVDZ              selected for orbital group  3
 Library entry H      P cc-pVDZ              selected for orbital group  3

1PROGRAM * SEWARD (Integral evaluation for generally contracted gaussian basis sets)     Author: Roland Lindh, 1990

 Geometry written to block  1 of record 700


 Point group  C1  



 ATOMIC COORDINATES

 NR  ATOM    CHARGE       X              Y              Z

   1  C       6.00    3.357976046    1.344348918   -0.089443368
   2  C       6.00    0.929389944   -0.113370094   -0.371319661
   3  C       6.00    0.851005696   -2.903174955    0.191651343
   4  O       8.00   -1.059697462    1.374274865    0.480848305
   5  O       8.00   -3.473014908    0.174363212   -0.227772083
   6  H       1.00    4.885647037    0.399612664   -1.155455816
   7  H       1.00    3.137751146    3.293580974   -0.806029364
   8  H       1.00    3.959209599    1.462738916    1.923080562
   9  H       1.00   -0.954068647   -3.742625916   -0.415905411
  10  H       1.00    2.422640648   -3.869815825   -0.788248744
  11  H       1.00    1.061699131   -3.250048283    2.257772589
  12  H       1.00   -3.757155668    1.039100230   -1.827450373

 Bond lengths in Bohr (Angstrom)

 1-2  2.846476668  1-6  2.088704811  1-7  2.088420481  1-8  2.103746788  2-3  2.847119878
     ( 1.506290578)     ( 1.105294982)     ( 1.105144521)     ( 1.113254854)     ( 1.506630951)

  2- 4  2.625975338   3- 9  2.081368903   3-10  2.089170930   3-11  2.105604386   4- 5  2.786760112
       ( 1.389606300)       ( 1.101412987)       ( 1.105541642)       ( 1.114237852)       ( 1.474689938)

  5-12  1.840509906
       ( 0.973955895)

 Bond angles

  1-2-3  120.37866573   1-2-4  108.90555081   2-1-6  109.98947225   2-1-7  110.73429490

  2- 1- 8  111.55454090   2- 3- 9  111.18344375   2- 3-10  109.87207858   2- 3-11  110.65210014

  2- 4- 5  109.23946113   3- 2- 4  118.03986083   4- 5-12   98.76614653   6- 1- 7  108.91518355

  6- 1- 8  107.73808609   7- 1- 8  107.80970783   9- 3-10  109.20143600   9- 3-11  107.86452433

 10- 3-11  107.98358825

 NUCLEAR CHARGE:                   41
 NUMBER OF PRIMITIVE AOS:         184
 NUMBER OF SYMMETRY AOS:          179
 NUMBER OF CONTRACTIONS:          105   ( 105A   )
 NUMBER OF CORE ORBITALS:           5   (   5A   )
 NUMBER OF VALENCE ORBITALS:       27   (  27A   )


 NUCLEAR REPULSION ENERGY  183.22848861


 Eigenvalues of metric

         1 0.345E-02 0.435E-02 0.105E-01 0.141E-01 0.182E-01 0.214E-01 0.331E-01 0.346E-01


 Contracted 2-electron integrals neglected if value below      1.0D-16
 AO integral compression algorithm  1   Integral accuracy      1.0D-16

     127.664 MB (compressed) written to integral file ( 93.2%)

     Node minimum: 40.894 MB, node maximum: 43.516 MB


 NUMBER OF SORTED TWO-ELECTRON INTEGRALS:    5164320.     BUFFER LENGTH:  32768
 NUMBER OF SEGMENTS:   1  SEGMENT LENGTH:    5164320      RECORD LENGTH: 524288

 Memory used in sort:       5.72 MW

 SORT1 READ    17075548. AND WROTE     5135902. INTEGRALS IN     15 RECORDS. CPU TIME:     0.19 SEC, REAL TIME:     0.23 SEC
 SORT2 READ    15396633. AND WROTE    15487395. INTEGRALS IN    498 RECORDS. CPU TIME:     0.06 SEC, REAL TIME:     0.09 SEC

 Node minimum:     5160610.  Node maximum:     5164320. integrals

 OPERATOR DM      FOR CENTER  0  COORDINATES:    0.000000    0.000000    0.000000


 **********************************************************************************************************************************
 DATASETS  * FILE   NREC   LENGTH (MB)   RECORD NAMES
              1      18        3.17       500      610      700      900      950      970     1000      129      960     1100   
                                          VAR    BASINP    GEOM    SYMINP    ZMAT    AOBASIS   BASIS     P2S    ABASIS      S 
                                         1400     1410     1200     1210     1080     1600     1650     1700   
                                           T        V       H0       H01     AOSYM     SMH    MOLCAS    OPER   

 PROGRAMS   *        TOTAL       INT
 CPU TIMES  *         0.80      0.74
 REAL TIME  *         1.22 SEC
 DISK USED  *       305.71 MB      
 GA USED    *         0.00 MB       (max)       0.00 MB       (current)
 **********************************************************************************************************************************

1PROGRAM * RHF-SCF (OPEN SHELL)       Authors: W. Meyer, H.-J. Werner


 NUMBER OF ELECTRONS:      21+   20-    SPACE SYMMETRY=1    SPIN SYMMETRY: Doublet 
 CONVERGENCE THRESHOLDS:    1.00E-10 (Density)    1.00E-11 (Energy)
 MAX. NUMBER OF ITERATIONS:      200
 INTERPOLATION TYPE:            DIIS
 INTERPOLATION STEPS:              2 (START)      1 (STEP)
 LEVEL SHIFTS:                 -0.30 (CLOSED)  0.00 (OPEN) 



 Orbital guess generated from atomic densities. Full valence occupancy:   32

 Molecular orbital dump at record        2100.2

 ITERATION    DDIFF          GRAD             ENERGY        2-EL.EN.            DIPOLE MOMENTS         DIIS
    1      0.000D+00      0.000D+00      -267.17825437    555.828050    0.57110    0.04916   -0.74925    0
    2      0.000D+00      0.617D-02      -267.24894917    555.749868    0.41434   -0.13149   -0.59868    1
    3      0.928D-02      0.214D-02      -267.26113007    555.667653    0.39386   -0.05957   -0.62609    2
    4      0.336D-02      0.912D-03      -267.26474067    555.820012    0.37911   -0.09975   -0.64252    3
    5      0.186D-02      0.364D-03      -267.26531017    555.791406    0.38159   -0.09329   -0.63551    4
    6      0.792D-03      0.110D-03      -267.26538667    555.777658    0.37983   -0.09310   -0.63826    5
    7      0.277D-03      0.511D-04      -267.26540683    555.774655    0.37910   -0.09285   -0.63775    6
    8      0.144D-03      0.273D-04      -267.26541290    555.772712    0.37937   -0.09296   -0.63796    7
    9      0.924D-04      0.115D-04      -267.26541381    555.773025    0.37956   -0.09292   -0.63772    8
   10      0.366D-04      0.501D-05      -267.26541397    555.773637    0.37982   -0.09293   -0.63779    9
   11      0.147D-04      0.197D-05      -267.26541400    555.773478    0.37987   -0.09293   -0.63779    9
   12      0.651D-05      0.671D-06      -267.26541400    555.773613    0.37989   -0.09293   -0.63779    9
   13      0.227D-05      0.226D-06      -267.26541400    555.773528    0.37989   -0.09293   -0.63778    9
   14      0.632D-06      0.757D-07      -267.26541400    555.773537    0.37989   -0.09293   -0.63778    9
   15      0.193D-06      0.300D-07      -267.26541400    555.773533    0.37989   -0.09293   -0.63778    9
   16      0.823D-07      0.145D-07      -267.26541400    555.773534    0.37989   -0.09293   -0.63778    9
   17      0.373D-07      0.748D-08      -267.26541400    555.773534    0.37989   -0.09293   -0.63778    9
   18      0.221D-07      0.341D-08      -267.26541400    555.773535    0.37989   -0.09293   -0.63778    9
   19      0.114D-07      0.133D-08      -267.26541400    555.773535    0.37989   -0.09293   -0.63778    9
   20      0.444D-08      0.566D-09      -267.26541400    555.773535    0.37989   -0.09293   -0.63778    9
   21      0.165D-08      0.286D-09      -267.26541400    555.773535    0.37989   -0.09293   -0.63778    9
   22      0.752D-09      0.161D-09      -267.26541400    555.773535    0.37989   -0.09293   -0.63778    9
   23      0.445D-09      0.794D-10      -267.26541400    555.773535    0.37989   -0.09293   -0.63778    9
   24      0.263D-09      0.316D-10      -267.26541400    555.773535    0.37989   -0.09293   -0.63778    9
   25      0.931D-10      0.129D-10      -267.26541400    555.773535    0.37989   -0.09293   -0.63778    0

 Final alpha occupancy:  21
 Final beta  occupancy:  20

 !RHF STATE 1.1 Energy               -267.265414001968
 Nuclear energy                       183.22848861
 One-electron energy                 -728.38066991
 Two-electron energy                  277.88676729
 Virial quotient                       -1.00155040
 !RHF STATE 1.1 Dipole moment           0.37989193    -0.09293023    -0.63778416
 Dipole moment /Debye                   0.96552572    -0.23618962    -1.62097947

 Orbital energies:

         1.1          2.1          3.1          4.1          5.1          6.1          7.1          8.1          9.1         10.1
    -20.630519   -20.628790   -11.279266   -11.237863   -11.232137    -1.470215    -1.240830    -1.023231    -0.945381    -0.768504

        11.1         12.1         13.1         14.1         15.1         16.1         17.1         18.1         19.1         20.1
     -0.704653    -0.643068    -0.626758    -0.588773    -0.545223    -0.543466    -0.538971    -0.516961    -0.493050    -0.469740

        21.1         22.1         23.1
     -0.352337     0.181315     0.183532


 **********************************************************************************************************************************
 DATASETS  * FILE   NREC   LENGTH (MB)   RECORD NAMES
              1      18        3.17       500      610      700      900      950      970     1000      129      960     1100   
                                          VAR    BASINP    GEOM    SYMINP    ZMAT    AOBASIS   BASIS     P2S    ABASIS      S 
                                         1400     1410     1200     1210     1080     1600     1650     1700   
                                           T        V       H0       H01     AOSYM     SMH    MOLCAS    OPER   

              2       3        0.77       700     1000     2100   
                                         GEOM     BASIS     RHF  

 PROGRAMS   *        TOTAL       RHF       INT
 CPU TIMES  *         1.74      0.94      0.74
 REAL TIME  *         2.29 SEC
 DISK USED  *       322.27 MB      
 SF USED    *         0.04 MB      
 GA USED    *         0.00 MB       (max)       0.00 MB       (current)
 **********************************************************************************************************************************


1PROGRAM * CCSD (Unrestricted open-shell coupled cluster)     Authors: C. Hampel, H.-J. Werner, 1991, M. Deegan, P.J. Knowles, 1992


 Convergence thresholds:  THRVAR = 1.00D-08  THRDEN = 1.00D-10

 CCSD(T)     terms to be evaluated (factor= 1.000)


 Number of core orbitals:           5 (   5 )
 Number of closed-shell orbitals:  15 (  15 )
 Number of active  orbitals:        1 (   1 )
 Number of external orbitals:      84 (  84 )

 Memory could be reduced to 24.91 Mwords without degradation in triples

 Number of N-1 electron functions:              31
 Number of N-2 electron functions:             465
 Number of singly external CSFs:              2635
 Number of doubly external CSFs:           2537250
 Total number of CSFs:                     2539885

 Molecular orbitals read from record     2100.2  Type=RHF/CANONICAL (state 1.1)

 Integral transformation finished. Total CPU:   0.87 sec, npass=  1  Memory used:  12.63 MW

 Starting RMP2 calculation

 ITER.      SQ.NORM     CORR.ENERGY   TOTAL ENERGY   ENERGY CHANGE        DEN1      VAR(S)    VAR(P)  DIIS     TIME
   1      1.24301203    -0.78635327  -268.05176727    -0.78635327    -0.00304953  0.20D-04  0.11D-02  1  1     1.19
   2      1.24565312    -0.78964197  -268.05505598    -0.00328870    -0.00000474  0.54D-06  0.19D-05  2  2     1.45
   3      1.24571867    -0.78968404  -268.05509804    -0.00004206    -0.00000003  0.16D-07  0.68D-08  3  3     1.73
   4      1.24571963    -0.78968404  -268.05509804    -0.00000000    -0.00000000  0.27D-09  0.38D-10  4  4     2.03
   5      1.24571971    -0.78968407  -268.05509808    -0.00000003    -0.00000000  0.25D-11  0.65D-12  5  5     2.35
   6      1.24571972    -0.78968408  -268.05509808    -0.00000001    -0.00000000  0.28D-13  0.87D-14  6  6     2.70
   7      1.24571972    -0.78968408  -268.05509808     0.00000000    -0.00000000  0.47D-15  0.12D-15  6  1     3.04
   8      1.24571972    -0.78968408  -268.05509808     0.00000000    -0.00000000  0.60D-17  0.13D-17  6  2     3.40

 Norm of t1 vector:      0.03892760      S-energy:    -0.00227107      T1 diagnostic:  0.00055031
 Norm of t2 vector:      0.49417038      P-energy:    -0.78741301
                                         Alpha-Beta:  -0.59339709
                                         Alpha-Alpha: -0.10093888
                                         Beta-Beta:   -0.09307704

 Spin contamination <S**2-Sz**2-Sz>     0.00104022
  Reference energy                   -267.265414001968
  RHF-RMP2 correlation energy          -0.789684078728
 !RHF-RMP2 energy                    -268.055098080696

 Starting UCCSD calculation

 ITER.      SQ.NORM     CORR.ENERGY   TOTAL ENERGY   ENERGY CHANGE        DEN1      VAR(S)    VAR(P)  DIIS     TIME
   1      1.26278771    -0.80902907  -268.07444307    -0.80902907    -0.02515427  0.38D-02  0.59D-02  1  1     9.07
   2      1.29155995    -0.83643654  -268.10185054    -0.02740748    -0.00201086  0.22D-03  0.66D-03  2  2    14.00
   3      1.30150036    -0.84093402  -268.10634803    -0.00449748    -0.00032464  0.19D-03  0.56D-04  3  3    18.74
   4      1.30641375    -0.84241109  -268.10782509    -0.00147706    -0.00007210  0.43D-04  0.14D-04  4  4    23.51
   5      1.30914439    -0.84279931  -268.10821331    -0.00038822    -0.00002368  0.19D-04  0.32D-05  5  5    28.28
   6      1.31108411    -0.84300384  -268.10841784    -0.00020453    -0.00000646  0.42D-05  0.12D-05  6  6    33.09
   7      1.31203369    -0.84306264  -268.10847664    -0.00005880    -0.00000208  0.14D-05  0.37D-06  6  2    37.90
   8      1.31247541    -0.84310533  -268.10851933    -0.00004269    -0.00000065  0.45D-06  0.11D-06  6  1    42.70
   9      1.31266069    -0.84310991  -268.10852391    -0.00000458    -0.00000022  0.15D-06  0.35D-07  6  4    47.50
  10      1.31272386    -0.84311283  -268.10852683    -0.00000293    -0.00000005  0.35D-07  0.95D-08  6  3    52.30
  11      1.31275337    -0.84311158  -268.10852558     0.00000126    -0.00000002  0.13D-07  0.28D-08  6  5    57.10
  12      1.31276376    -0.84311132  -268.10852532     0.00000026    -0.00000000  0.26D-08  0.95D-09  6  6    61.89
  13      1.31276262    -0.84311040  -268.10852441     0.00000091    -0.00000000  0.96D-09  0.28D-09  6  2    66.70
  14      1.31275741    -0.84310956  -268.10852356     0.00000084    -0.00000000  0.21D-09  0.67D-10  6  1    71.51
  15      1.31275333    -0.84310897  -268.10852298     0.00000059    -0.00000000  0.78D-10  0.19D-10  6  4    77.89
  16      1.31275015    -0.84310859  -268.10852259     0.00000038    -0.00000000  0.28D-10  0.63D-11  6  3    84.23
  17      1.31274795    -0.84310835  -268.10852235     0.00000024    -0.00000000  0.10D-10  0.24D-11  6  5    90.58
  18      1.31274704    -0.84310829  -268.10852229     0.00000006    -0.00000000  0.41D-11  0.87D-12  6  6    97.12
  19      1.31274643    -0.84310826  -268.10852226     0.00000003    -0.00000000  0.16D-11  0.37D-12  6  2   103.46
  20      1.31274611    -0.84310825  -268.10852225     0.00000001    -0.00000000  0.60D-12  0.13D-12  6  1   109.75
  21      1.31274595    -0.84310823  -268.10852224     0.00000001    -0.00000000  0.28D-12  0.58D-13  6  4   116.13
  22      1.31274583    -0.84310823  -268.10852223     0.00000001    -0.00000000  0.74D-13  0.21D-13  6  3   120.94
  23      1.31274577    -0.84310822  -268.10852223     0.00000000    -0.00000000  0.21D-13  0.63D-14  6  5   125.75
  24      1.31274576    -0.84310822  -268.10852223    -0.00000000    -0.00000000  0.67D-14  0.23D-14  6  6   130.56
  25      1.31274577    -0.84310823  -268.10852223    -0.00000000    -0.00000000  0.21D-14  0.52D-15  6  2   135.38
  26      1.31274577    -0.84310823  -268.10852223    -0.00000000    -0.00000000  0.77D-15  0.15D-15  6  1   140.20
  27      1.31274578    -0.84310823  -268.10852223    -0.00000000    -0.00000000  0.20D-15  0.63D-16  6  3   145.01
  28      1.31274579    -0.84310823  -268.10852223    -0.00000000    -0.00000000  0.30D-16  0.11D-16  6  4   149.82
  29      1.31274579    -0.84310823  -268.10852223    -0.00000000    -0.00000000  0.71D-17  0.29D-17  6  5   154.64
  30      1.31274579    -0.84310823  -268.10852223    -0.00000000    -0.00000000  0.15D-17  0.54D-18  6  6   159.45
  31      1.31274579    -0.84310823  -268.10852223    -0.00000000    -0.00000000  0.35D-18  0.10D-18  6  2   164.25

 Norm of t1 vector:      0.13871980      S-energy:    -0.00282068      T1 diagnostic:  0.01616965
                                                                       D1 diagnostic:  0.06281882
 Norm of t2 vector:      0.54175881      P-energy:    -0.84028755
                                         Alpha-Beta:  -0.66484336
                                         Alpha-Alpha: -0.09147378
                                         Beta-Beta:   -0.08397041

 Spin contamination <S**2-Sz**2-Sz>     0.00217215

 Memory could be reduced to 28.85 Mwords without degradation in triples
 

 RESULTS
 =======

  Reference energy                   -267.265414001968
  UCCSD singles energy                 -0.002820676631
  UCCSD pair energy                    -0.840287550880
  UCCSD correlation energy             -0.843108227511
  Triples (T) contribution             -0.024974498485
  Total correlation energy             -0.868082725996
 
  RHF-UCCSD energy                   -268.108522229479
  RHF-UCCSD[T] energy                -268.134832486636
  RHF-UCCSD-T energy                 -268.133075307866
 !RHF-UCCSD(T) energy                -268.133496727964

 Program statistics:

 Available memory in ccsd:               999997692
 Min. memory needed in ccsd:               7337057
 Max. memory used in ccsd:                10523002
 Max. memory used in cckext:              10867977 (31 integral passes)
 Max. memory used in cckint:              12633073 ( 1 integral passes)



 **********************************************************************************************************************************
 DATASETS  * FILE   NREC   LENGTH (MB)   RECORD NAMES
              1      18        3.17       500      610      700      900      950      970     1000      129      960     1100   
                                          VAR    BASINP    GEOM    SYMINP    ZMAT    AOBASIS   BASIS     P2S    ABASIS      S 
                                         1400     1410     1200     1210     1080     1600     1650     1700   
                                           T        V       H0       H01     AOSYM     SMH    MOLCAS    OPER   

              2       3        0.77       700     1000     2100   
                                         GEOM     BASIS     RHF  

 PROGRAMS   *        TOTAL  UCCSD(T)       RHF       INT
 CPU TIMES  *       202.38    200.64      0.94      0.74
 REAL TIME  *       212.83 SEC
 DISK USED  *         1.29 GB      
 SF USED    *       553.73 MB      
 GA USED    *         0.00 MB       (max)       0.00 MB       (current)
 **********************************************************************************************************************************

        UCCSD(T)        RHF-SCF 
   -268.13349673   -267.26541400
 **********************************************************************************************************************************
 Variable memory released
