    -----------------------------------------------------------------------
          Psi4: An Open-Source Ab Initio Electronic Structure Package
                              Psi4 1.0.54 Driver

                          Git: Rev {master} 8d4cec3 dirty

    J. M. Turney, A. C. Simmonett, R. M. Parrish, E. G. Hohenstein,
    F. A. Evangelista, J. T. Fermann, B. J. Mintz, L. A. Burns, J. J. Wilke,
    M. L. Abrams, N. J. Russ, M. L. Leininger, C. L. Janssen, E. T. Seidl,
    W. D. Allen, H. F. Schaefer, R. A. King, E. F. Valeev, C. D. Sherrill,
    and T. D. Crawford, WIREs Comput. Mol. Sci. 2, 556-565 (2012)
    (doi: 10.1002/wcms.93)

                         Additional Contributions by
    A. E. DePrince, U. Bozkaya, A. Yu. Sokolov, D. G. A. Smith, R. Di Remigio,
    R. M. Richard, J. F. Gonthier, H. R. McAlexander, M. Saitow, and
    B. P. Pritchard
    -----------------------------------------------------------------------


    Psi4 started on: Wed Sep  7 16:15:57 2016

    Process ID:   2541
    PSI4DATADIR: /home/avcopan/Documents/code/github/psi4/share
    Memory level set to 256.000 MB

  ==> Input File <==

--------------------------------------------------------------------------
memory 250 mb

molecule {
  O    0.000000000000    0.000000000000   -0.064937611315
  H    0.000000000000   -0.749045999644    0.515303507817
  H   -0.000000000000    0.749045999644    0.515303507817
}

set basis sto-3g
energy('scf')
--------------------------------------------------------------------------

  Memory set to 250.000 MiB by Python script.
    There are an even number of electrons - assuming singlet.
    Specify the multiplicity in the molecule input block.


*** tstart() called on knut
*** at Wed Sep  7 16:15:57 2016


         ---------------------------------------------------------
                                   SCF
            by Justin Turney, Rob Parrish, and Andy Simmonett
                              RHF Reference
                        1 Threads,    250 MiB Core
         ---------------------------------------------------------

  ==> Geometry <==

    Molecular point group: c2v
    Full point group: C2v

    Geometry (in Angstrom), charge = 0, multiplicity = 1:

       Center              X                  Y                   Z               Mass       
    ------------   -----------------  -----------------  -----------------  -----------------
           O          0.000000000000     0.000000000000    -0.064937611315    15.994914619560
           H          0.000000000000    -0.749045999644     0.515303507817     1.007825032070
           H         -0.000000000000     0.749045999644     0.515303507817     1.007825032070

  Running in c2v symmetry.

  Rotational constants: A =     27.97111  B =     14.90611  C =      9.72406 [cm^-1]
  Rotational constants: A = 838552.88683  B = 446873.99393  C = 291519.87038 [MHz]
  Nuclear repulsion =    9.289240858712802

  Charge       = 0
  Multiplicity = 1
  Electrons    = 10
  Nalpha       = 5
  Nbeta        = 5

  ==> Algorithm <==

  SCF Algorithm Type is DF.
  DIIS enabled.
  MOM disabled.
  Fractional occupation disabled.
  Guess Type is SAD.
  Energy threshold   = 1.00e-06
  Density threshold  = 1.00e-06
  Integral threshold = 0.00e+00

  ==> Primary Basis <==

  Basis Set: STO-3G
    Number of shells: 5
    Number of basis function: 7
    Number of Cartesian functions: 7
    Spherical Harmonics?: true
    Max angular momentum: 1

  ==> Pre-Iterations <==

   -------------------------------------------------------
    Irrep   Nso     Nmo     Nalpha   Nbeta   Ndocc  Nsocc
   -------------------------------------------------------
     A1         4       4       0       0       0       0
     A2         0       0       0       0       0       0
     B1         1       1       0       0       0       0
     B2         2       2       0       0       0       0
   -------------------------------------------------------
    Total       7       7       5       5       5       0
   -------------------------------------------------------

  ==> Integral Setup <==

  ==> DFJK: Density-Fitted J/K Matrices <==

    J tasked:                  Yes
    K tasked:                  Yes
    wK tasked:                  No
    OpenMP threads:              1
    Integrals threads:           1
    Memory (MB):               178
    Algorithm:                Core
    Integral Cache:           NONE
    Schwarz Cutoff:          1E-12
    Fitting Condition:       1E-12

   => Auxiliary Basis Set <=

  Basis Set: 
    Number of shells: 30
    Number of basis function: 84
    Number of Cartesian functions: 96
    Spherical Harmonics?: true
    Max angular momentum: 3

  Minimum eigenvalue in the overlap matrix is 3.3581580537E-01.
  Using Symmetric Orthogonalization.
  SCF Guess: Superposition of Atomic Densities via on-the-fly atomic UHF.

  ==> Iterations <==

                           Total Energy        Delta E     RMS |[F,P]|

   @DF-RHF iter   0:   -74.82882758797929   -7.48288e+01   3.35494e-01 
   @DF-RHF iter   1:   -74.91863760222670   -8.98100e-02   4.93786e-02 
   @DF-RHF iter   2:   -74.96006809065612   -4.14305e-02   8.22477e-03 DIIS
   @DF-RHF iter   3:   -74.96145053670881   -1.38245e-03   3.18033e-03 DIIS
   @DF-RHF iter   4:   -74.96176554038759   -3.15004e-04   2.86761e-04 DIIS
   @DF-RHF iter   5:   -74.96176746875858   -1.92837e-06   2.37298e-05 DIIS
   @DF-RHF iter   6:   -74.96176747853710   -9.77852e-09   7.38933e-07 DIIS

  ==> Post-Iterations <==

    Orbital Energies (a.u.)
    -----------------------

    Doubly Occupied:                                                      

       1A1   -20.241235     2A1    -1.273550     1B2    -0.623019  
       3A1    -0.454278     1B1    -0.391948  

    Virtual:                                                              

       4A1     0.615633     2B2     0.754011  

    Final Occupation by Irrep:
             A1    A2    B1    B2 
    DOCC [     3,    0,    1,    1 ]

  Energy converged.

  @DF-RHF Final Energy:   -74.96176747853710

   => Energetics <=

    Nuclear Repulsion Energy =              9.2892408587128017
    One-Electron Energy =                -122.5339407798049649
    Two-Electron Energy =                  38.2829324425550581
    DFT Exchange-Correlation Energy =       0.0000000000000000
    Empirical Dispersion Energy =           0.0000000000000000
    PCM Polarization Energy =               0.0000000000000000
    EFP Energy =                            0.0000000000000000
    Total Energy =                        -74.9617674785370980


  Saving occupied orbitals to File 180.

*** tstop() called on knut at Wed Sep  7 16:15:58 2016
Module time:
	user time   =       0.19 seconds =       0.00 minutes
	system time =       0.29 seconds =       0.00 minutes
	total time  =          1 seconds =       0.02 minutes
Total time:
	user time   =       0.19 seconds =       0.00 minutes
	system time =       0.29 seconds =       0.00 minutes
	total time  =          1 seconds =       0.02 minutes


Properties will be evaluated at   0.000000,   0.000000,   0.000000 Bohr

Properties computed using the SCF density matrix

  Nuclear Dipole Moment: (a.u.)
     X:     0.0000      Y:     0.0000      Z:     0.9659

  Electronic Dipole Moment: (a.u.)
     X:     0.0000      Y:     0.0000      Z:    -0.2818

  Dipole Moment: (a.u.)
     X:     0.0000      Y:     0.0000      Z:     0.6840     Total:     0.6840

  Dipole Moment: (Debye)
     X:     0.0000      Y:     0.0000      Z:     1.7387     Total:     1.7387


*** Psi4 exiting successfully. Buy a developer a beer!
