
 Primary working directories    : /tmp/320938.376.gen4.q
 Secondary working directories  : /tmp/320938.376.gen4.q
 Wavefunction directory         : /home/vulcan/mel64643/wfu/
 Main file repository           : /tmp/320938.376.gen4.q/

 ARCHNAME  : Linux/x86_64
 FC        : /opt/intel/compilers_and_libraries_2016.1.150/linux/bin/intel64/ifort
 FCVERSION : 16.0.1
 BLASLIB   : -mkl
 id        : ccgc

 Nodes     nprocs
 n036         3
 Number of processes for MPI-2 version of Molpro:   nprocs(total)=    4   nprocs(compute)=    3   nprocs(helper)=    1
 ga_uses_ma=false, calling ma_init with nominal heap.
 GA-space will be limited to   8.0 MW (determined by -G option)

 Using customized tuning parameters: mindgm=10; mindgv=16; mindgc=4; mindgr=1; noblas=0; mincuda=1000; minvec=7
 default implementation of scratch files=sf  

 ***,Frequencies for min3
 memory,1000,m
 gthresh,energy=1.0d-10,orbital=1.0d-10,oneint=1.0d-16,twoint=1.0d-16,optgrad=1.0d-6,compress=1.0d-13
 geomtyp=xyz
 
  geometry = {
  12
  arbitrary comment
     C    1.776964391707    0.711398808326   -0.047331391796
     C    0.491811976407   -0.059338630746   -0.196506267364
     C    0.450236071263   -1.536514950640    0.101473123832
     O   -0.560703746813    0.727092075810    0.254416900230
     O   -1.837824996486    0.092198790419   -0.120526099757
     H    2.585391507233    0.211062308272   -0.611488153833
     H    1.660554467396    1.744826930720   -0.426884271821
     H    2.095511967327    0.773049817654    1.017463260954
     H   -0.505214644169   -1.983282327043   -0.219830162054
     H    1.281534697115   -2.048223835695   -0.416880648114
     H    0.561501658840   -1.719725845105    1.194961641363
     H   -1.987703233534    0.550603821093   -0.967175699324
  }
 
 basis=cc-pvdz
 {rhf;maxit,200}
 {uccsd(t);maxit,200}

 Variables initialized (661), CPU time= 0.00 sec
 Commands  initialized (458), CPU time= 0.01 sec, 486 directives.
 Default parameters read. Elapsed time= 0.05 sec

 Checking input...
 Passed
1


                                         ***  PROGRAM SYSTEM MOLPRO  ***
                         Copyright, University College Cardiff Consultants Limited, 2008

                                    Version 2010.1 linked May 16 2016 07:17:05


 **********************************************************************************************************************************
 LABEL *   Frequencies for min3                                                          
 Linux-4.4.3/n036(x86_64) 64 bit mpp version                                             DATE: 07-Mar-20          TIME: 03:10:35  
 **********************************************************************************************************************************

 SHA1:             9e8077add272b0f3cad6f7df79ec5211205f459d
 **********************************************************************************************************************************

 THRESHOLDS:

 ZERO    =  1.00D-12  ONEINT  =  1.00D-16  TWOINT  =  1.00D-16  PREFAC  =  1.00D-14  LOCALI  =  1.00D-09  EORDER  =  1.00D-04
 ENERGY  =  1.00D-10  ETEST   =  0.00D+00  EDENS   =  0.00D+00  THRDEDEF=  1.00D-06  GRADIENT=  1.00D-02  STEP    =  1.00D-03
 ORBITAL =  1.00D-10  CIVEC   =  1.00D-05  COEFF   =  1.00D-04  PRINTCI =  5.00D-02  PUNCHCI =  9.90D+01  OPTGRAD =  1.00D-06
 OPTENERG=  1.00D-06  OPTSTEP =  3.00D-04  THRGRAD =  1.00D-10  COMPRESS=  1.00D-13  VARMIN  =  1.00D-07  VARMAX  =  1.00D-03
 THRDOUB =  0.00D+00  THRDIV  =  1.00D-05  THRRED  =  1.00D-07  THRPSP  =  1.00D+00  THRDC   =  1.00D-10  THRCS   =  1.00D-10
 THRNRM  =  1.00D-08  THREQ   =  0.00D+00  THRDE   =  1.00D+00  THRREF  =  1.00D-05  SPARFAC =  1.00D+00  THRDLP  =  1.00D-07
 THRDIA  =  1.00D-10  THRDLS  =  1.00D-07  THRGPS  =  0.00D+00  THRKEX  =  0.00D+00  THRDIS  =  2.00D-01  THRVAR  =  1.00D-10
 THRLOC  =  1.00D-06  THRGAP  =  1.00D-06  THRLOCT = -1.00D+00  THRGAPT = -1.00D+00  THRORB  =  1.00D-06  THRMLTP =  0.00D+00
 THRCPQCI=  1.00D-10  KEXTA   =  0.00D+00  THRCOARS=  0.00D+00  SYMTOL  =  1.00D-06  GRADTOL =  1.00D-06  THROVL  =  1.00D-08
 THRORTH =  1.00D-08  GRID    =  1.00D-06  GRIDMAX =  1.00D-03  DTMAX   =  0.00D+00

 SETTING GEOMTYP        =    XYZ

 Variable memory set to 1000000000 words,  buffer space   230000 words

 SETTING BASIS          =    CC-PVDZ


 Recomputing integrals since basis changed


 Using spherical harmonics

 Library entry C      S cc-pVDZ              selected for orbital group  1
 Library entry C      P cc-pVDZ              selected for orbital group  1
 Library entry C      D cc-pVDZ              selected for orbital group  1
 Library entry O      S cc-pVDZ              selected for orbital group  2
 Library entry O      P cc-pVDZ              selected for orbital group  2
 Library entry O      D cc-pVDZ              selected for orbital group  2
 Library entry H      S cc-pVDZ              selected for orbital group  3
 Library entry H      P cc-pVDZ              selected for orbital group  3

1PROGRAM * SEWARD (Integral evaluation for generally contracted gaussian basis sets)     Author: Roland Lindh, 1990

 Geometry written to block  1 of record 700


 Point group  C1  



 ATOMIC COORDINATES

 NR  ATOM    CHARGE       X              Y              Z

   1  C       6.00    3.357976046    1.344348918   -0.089443368
   2  C       6.00    0.929389944   -0.112133761   -0.371343028
   3  C       6.00    0.850822869   -2.903592454    0.191756414
   4  O       8.00   -1.059576522    1.374004896    0.480778265
   5  O       8.00   -3.472985921    0.174230464   -0.227761320
   6  H       1.00    4.885681891    0.398849959   -1.155545143
   7  H       1.00    3.137993170    3.297245046   -0.806694364
   8  H       1.00    3.959943723    1.460852441    1.922726912
   9  H       1.00   -0.954717315   -3.747860439   -0.415418802
  10  H       1.00    2.421749605   -3.870582105   -0.787790254
  11  H       1.00    1.061084358   -3.249810868    2.258150240
  12  H       1.00   -3.756214742    1.040490429   -1.827697193

 Bond lengths in Bohr (Angstrom)

 1-2  2.845846037  1-6  2.089120970  1-7  2.092043198  1-8  2.103513107  2-3  2.848770857
     ( 1.505956863)     ( 1.105515204)     ( 1.107061581)     ( 1.113131195)     ( 1.507504611)

  2- 4  2.625015506   3- 9  2.083608776   3-10  2.088633877   3-11  2.105720905   4- 5  2.786760118
       ( 1.389098379)       ( 1.102598277)       ( 1.105257446)       ( 1.114299511)       ( 1.474689941)

  5-12  1.841309232
       ( 0.974378880)

 Bond angles

  1-2-3  120.36135121   1-2-4  108.94734199   2-1-6  109.99087843   2-1-7  110.73559770

  2- 1- 8  111.55009486   2- 3- 9  111.30555495   2- 3-10  109.89011428   2- 3-11  110.62981566

  2- 4- 5  109.26340169   3- 2- 4  118.01439057   4- 5-12   98.71904249   6- 1- 7  108.93016311

  6- 1- 8  107.69495633   7- 1- 8  107.83937814   9- 3-10  109.11669584   9- 3-11  107.81042198

 10- 3-11  107.99935211

 NUCLEAR CHARGE:                   41
 NUMBER OF PRIMITIVE AOS:         184
 NUMBER OF SYMMETRY AOS:          179
 NUMBER OF CONTRACTIONS:          105   ( 105A   )
 NUMBER OF CORE ORBITALS:           5   (   5A   )
 NUMBER OF VALENCE ORBITALS:       27   (  27A   )


 NUCLEAR REPULSION ENERGY  183.21227827


 Eigenvalues of metric

         1 0.345E-02 0.436E-02 0.105E-01 0.141E-01 0.182E-01 0.214E-01 0.331E-01 0.346E-01


 Contracted 2-electron integrals neglected if value below      1.0D-16
 AO integral compression algorithm  1   Integral accuracy      1.0D-16

     127.402 MB (compressed) written to integral file ( 93.4%)

     Node minimum: 35.914 MB, node maximum: 54.788 MB


 NUMBER OF SORTED TWO-ELECTRON INTEGRALS:    5164320.     BUFFER LENGTH:  32768
 NUMBER OF SEGMENTS:   1  SEGMENT LENGTH:    5164320      RECORD LENGTH: 524288

 Memory used in sort:       5.72 MW

 SORT1 READ    17075251. AND WROTE     5135880. INTEGRALS IN     15 RECORDS. CPU TIME:     0.36 SEC, REAL TIME:     0.40 SEC
 SORT2 READ    15396548. AND WROTE    15487395. INTEGRALS IN    420 RECORDS. CPU TIME:     0.12 SEC, REAL TIME:     0.16 SEC

 Node minimum:     5160610.  Node maximum:     5164320. integrals

 OPERATOR DM      FOR CENTER  0  COORDINATES:    0.000000    0.000000    0.000000


 **********************************************************************************************************************************
 DATASETS  * FILE   NREC   LENGTH (MB)   RECORD NAMES
              1      18        3.17       500      610      700      900      950      970     1000      129      960     1100   
                                          VAR    BASINP    GEOM    SYMINP    ZMAT    AOBASIS   BASIS     P2S    ABASIS      S 
                                         1400     1410     1200     1210     1080     1600     1650     1700   
                                           T        V       H0       H01     AOSYM     SMH    MOLCAS    OPER   

 PROGRAMS   *        TOTAL       INT
 CPU TIMES  *         1.74      1.68
 REAL TIME  *         2.04 SEC
 DISK USED  *       316.18 MB      
 GA USED    *         0.00 MB       (max)       0.00 MB       (current)
 **********************************************************************************************************************************

1PROGRAM * RHF-SCF (OPEN SHELL)       Authors: W. Meyer, H.-J. Werner


 NUMBER OF ELECTRONS:      21+   20-    SPACE SYMMETRY=1    SPIN SYMMETRY: Doublet 
 CONVERGENCE THRESHOLDS:    1.00E-10 (Density)    1.00E-11 (Energy)
 MAX. NUMBER OF ITERATIONS:      200
 INTERPOLATION TYPE:            DIIS
 INTERPOLATION STEPS:              2 (START)      1 (STEP)
 LEVEL SHIFTS:                 -0.30 (CLOSED)  0.00 (OPEN) 



 Orbital guess generated from atomic densities. Full valence occupancy:   32

 Molecular orbital dump at record        2100.2

 ITERATION    DDIFF          GRAD             ENERGY        2-EL.EN.            DIPOLE MOMENTS         DIIS
    1      0.000D+00      0.000D+00      -267.17819315    555.797278    0.57118    0.05121   -0.74975    0
    2      0.000D+00      0.617D-02      -267.24885782    555.719191    0.41395   -0.13044   -0.59849    1
    3      0.927D-02      0.214D-02      -267.26104239    555.637245    0.39355   -0.05882   -0.62587    2
    4      0.336D-02      0.912D-03      -267.26465821    555.789387    0.37879   -0.09916   -0.64222    3
    5      0.186D-02      0.364D-03      -267.26522954    555.760728    0.38128   -0.09277   -0.63519    4
    6      0.793D-03      0.110D-03      -267.26530648    555.747010    0.37953   -0.09260   -0.63794    5
    7      0.278D-03      0.513D-04      -267.26532678    555.743977    0.37880   -0.09235   -0.63743    6
    8      0.144D-03      0.273D-04      -267.26533288    555.742041    0.37907   -0.09246   -0.63764    7
    9      0.927D-04      0.115D-04      -267.26533380    555.742350    0.37925   -0.09242   -0.63740    8
   10      0.367D-04      0.503D-05      -267.26533396    555.742965    0.37951   -0.09243   -0.63747    9
   11      0.147D-04      0.197D-05      -267.26533399    555.742806    0.37956   -0.09243   -0.63747    9
   12      0.652D-05      0.671D-06      -267.26533399    555.742940    0.37958   -0.09243   -0.63747    9
   13      0.227D-05      0.226D-06      -267.26533399    555.742856    0.37958   -0.09243   -0.63747    9
   14      0.631D-06      0.759D-07      -267.26533399    555.742865    0.37958   -0.09243   -0.63747    9
   15      0.193D-06      0.301D-07      -267.26533399    555.742861    0.37958   -0.09243   -0.63746    9
   16      0.826D-07      0.145D-07      -267.26533399    555.742862    0.37958   -0.09243   -0.63746    9
   17      0.375D-07      0.751D-08      -267.26533399    555.742862    0.37958   -0.09243   -0.63746    9
   18      0.223D-07      0.342D-08      -267.26533399    555.742862    0.37958   -0.09243   -0.63746    9
   19      0.114D-07      0.133D-08      -267.26533399    555.742862    0.37958   -0.09243   -0.63747    9
   20      0.444D-08      0.569D-09      -267.26533399    555.742862    0.37958   -0.09243   -0.63747    9
   21      0.166D-08      0.287D-09      -267.26533399    555.742862    0.37958   -0.09243   -0.63747    9
   22      0.757D-09      0.162D-09      -267.26533399    555.742862    0.37958   -0.09243   -0.63747    9
   23      0.447D-09      0.798D-10      -267.26533399    555.742862    0.37958   -0.09243   -0.63747    9
   24      0.264D-09      0.318D-10      -267.26533399    555.742862    0.37958   -0.09243   -0.63747    9
   25      0.936D-10      0.130D-10      -267.26533399    555.742862    0.37958   -0.09243   -0.63747    0

 Final alpha occupancy:  21
 Final beta  occupancy:  20

 !RHF STATE 1.1 Energy               -267.265333991310
 Nuclear energy                       183.21227827
 One-electron energy                 -728.34904345
 Two-electron energy                  277.87143119
 Virial quotient                       -1.00156868
 !RHF STATE 1.1 Dipole moment           0.37958398    -0.09243154    -0.63746503
 Dipole moment /Debye                   0.96474306    -0.23492217    -1.62016837

 Orbital energies:

         1.1          2.1          3.1          4.1          5.1          6.1          7.1          8.1          9.1         10.1
    -20.630506   -20.628889   -11.279292   -11.238094   -11.232274    -1.470292    -1.240889    -1.023047    -0.945142    -0.768530

        11.1         12.1         13.1         14.1         15.1         16.1         17.1         18.1         19.1         20.1
     -0.704646    -0.642902    -0.626790    -0.588817    -0.545005    -0.543247    -0.538931    -0.516806    -0.493147    -0.469728

        21.1         22.1         23.1
     -0.352229     0.181228     0.183507


 **********************************************************************************************************************************
 DATASETS  * FILE   NREC   LENGTH (MB)   RECORD NAMES
              1      18        3.17       500      610      700      900      950      970     1000      129      960     1100   
                                          VAR    BASINP    GEOM    SYMINP    ZMAT    AOBASIS   BASIS     P2S    ABASIS      S 
                                         1400     1410     1200     1210     1080     1600     1650     1700   
                                           T        V       H0       H01     AOSYM     SMH    MOLCAS    OPER   

              2       3        0.77       700     1000     2100   
                                         GEOM     BASIS     RHF  

 PROGRAMS   *        TOTAL       RHF       INT
 CPU TIMES  *         3.70      1.96      1.68
 REAL TIME  *         4.19 SEC
 DISK USED  *       332.75 MB      
 SF USED    *         0.04 MB      
 GA USED    *         0.00 MB       (max)       0.00 MB       (current)
 **********************************************************************************************************************************


1PROGRAM * CCSD (Unrestricted open-shell coupled cluster)     Authors: C. Hampel, H.-J. Werner, 1991, M. Deegan, P.J. Knowles, 1992


 Convergence thresholds:  THRVAR = 1.00D-08  THRDEN = 1.00D-10

 CCSD(T)     terms to be evaluated (factor= 1.000)


 Number of core orbitals:           5 (   5 )
 Number of closed-shell orbitals:  15 (  15 )
 Number of active  orbitals:        1 (   1 )
 Number of external orbitals:      84 (  84 )

 Memory could be reduced to 24.91 Mwords without degradation in triples

 Number of N-1 electron functions:              31
 Number of N-2 electron functions:             465
 Number of singly external CSFs:              2635
 Number of doubly external CSFs:           2537250
 Total number of CSFs:                     2539885

 Molecular orbitals read from record     2100.2  Type=RHF/CANONICAL (state 1.1)

 Integral transformation finished. Total CPU:   1.60 sec, npass=  1  Memory used:  12.63 MW

 Starting RMP2 calculation

 ITER.      SQ.NORM     CORR.ENERGY   TOTAL ENERGY   ENERGY CHANGE        DEN1      VAR(S)    VAR(P)  DIIS     TIME
   1      1.24307480    -0.78641455  -268.05174854    -0.78641455    -0.00305067  0.20D-04  0.11D-02  1  1     2.09
   2      1.24571746    -0.78970452  -268.05503852    -0.00328998    -0.00000475  0.54D-06  0.19D-05  2  2     2.52
   3      1.24578306    -0.78974661  -268.05508061    -0.00004209    -0.00000003  0.16D-07  0.68D-08  3  3     2.97
   4      1.24578401    -0.78974662  -268.05508061    -0.00000000    -0.00000000  0.27D-09  0.38D-10  4  4     3.46
   5      1.24578410    -0.78974665  -268.05508064    -0.00000003    -0.00000000  0.25D-11  0.65D-12  5  5     3.97
   6      1.24578411    -0.78974666  -268.05508065    -0.00000001    -0.00000000  0.28D-13  0.87D-14  6  6     4.51
   7      1.24578411    -0.78974665  -268.05508065     0.00000000    -0.00000000  0.47D-15  0.12D-15  6  1     5.06
   8      1.24578411    -0.78974665  -268.05508065     0.00000000    -0.00000000  0.60D-17  0.13D-17  6  2     5.61

 Norm of t1 vector:      0.03893623      S-energy:    -0.00227187      T1 diagnostic:  0.00055045
 Norm of t2 vector:      0.49423484      P-energy:    -0.78747479
                                         Alpha-Beta:  -0.59345163
                                         Alpha-Alpha: -0.10094251
                                         Beta-Beta:   -0.09308065

 Spin contamination <S**2-Sz**2-Sz>     0.00104051
  Reference energy                   -267.265333991309
  RHF-RMP2 correlation energy          -0.789746654885
 !RHF-RMP2 energy                    -268.055080646193

 Starting UCCSD calculation

 ITER.      SQ.NORM     CORR.ENERGY   TOTAL ENERGY   ENERGY CHANGE        DEN1      VAR(S)    VAR(P)  DIIS     TIME
   1      1.26285814    -0.80908693  -268.07442092    -0.80908693    -0.02516158  0.38D-02  0.59D-02  1  1    15.40
   2      1.29164644    -0.83650303  -268.10183702    -0.02741610    -0.00201193  0.22D-03  0.66D-03  2  2    25.14
   3      1.30159475    -0.84100389  -268.10633788    -0.00450086    -0.00032478  0.19D-03  0.56D-04  3  3    34.81
   4      1.30651135    -0.84248178  -268.10781577    -0.00147789    -0.00007215  0.43D-04  0.14D-04  4  4    44.62
   5      1.30924390    -0.84287018  -268.10820417    -0.00038840    -0.00002371  0.19D-04  0.32D-05  5  5    54.62
   6      1.31118648    -0.84307491  -268.10840890    -0.00020474    -0.00000647  0.42D-05  0.12D-05  6  6    64.36
   7      1.31213817    -0.84313381  -268.10846780    -0.00005890    -0.00000209  0.14D-05  0.37D-06  6  2    74.21
   8      1.31258111    -0.84317657  -268.10851056    -0.00004276    -0.00000065  0.45D-06  0.11D-06  6  1    83.94
   9      1.31276720    -0.84318119  -268.10851518    -0.00000462    -0.00000022  0.15D-06  0.35D-07  6  4    92.86
  10      1.31283068    -0.84318413  -268.10851812    -0.00000294    -0.00000005  0.35D-07  0.96D-08  6  3    99.71
  11      1.31286032    -0.84318288  -268.10851687     0.00000125    -0.00000002  0.13D-07  0.28D-08  6  5   106.52
  12      1.31287076    -0.84318262  -268.10851661     0.00000026    -0.00000000  0.26D-08  0.96D-09  6  6   113.37
  13      1.31286961    -0.84318170  -268.10851569     0.00000092    -0.00000000  0.96D-09  0.29D-09  6  2   119.54
  14      1.31286440    -0.84318085  -268.10851484     0.00000085    -0.00000000  0.21D-09  0.68D-10  6  1   126.36
  15      1.31286031    -0.84318027  -268.10851426     0.00000059    -0.00000000  0.78D-10  0.19D-10  6  4   133.21
  16      1.31285712    -0.84317988  -268.10851387     0.00000038    -0.00000000  0.28D-10  0.63D-11  6  3   140.05
  17      1.31285491    -0.84317964  -268.10851363     0.00000024    -0.00000000  0.10D-10  0.24D-11  6  5   146.86
  18      1.31285400    -0.84317958  -268.10851357     0.00000006    -0.00000000  0.41D-11  0.87D-12  6  6   153.72
  19      1.31285339    -0.84317955  -268.10851354     0.00000003    -0.00000000  0.16D-11  0.37D-12  6  2   160.57
  20      1.31285307    -0.84317954  -268.10851353     0.00000001    -0.00000000  0.60D-12  0.13D-12  6  1   167.42
  21      1.31285291    -0.84317953  -268.10851352     0.00000001    -0.00000000  0.28D-12  0.58D-13  6  4   175.12
  22      1.31285278    -0.84317952  -268.10851351     0.00000001    -0.00000000  0.74D-13  0.22D-13  6  3   184.86
  23      1.31285272    -0.84317951  -268.10851351     0.00000000    -0.00000000  0.22D-13  0.63D-14  6  5   194.57
  24      1.31285272    -0.84317951  -268.10851351    -0.00000000    -0.00000000  0.68D-14  0.23D-14  6  6   204.30
  25      1.31285272    -0.84317952  -268.10851351    -0.00000000    -0.00000000  0.21D-14  0.53D-15  6  2   214.06
  26      1.31285273    -0.84317952  -268.10851351    -0.00000000    -0.00000000  0.77D-15  0.15D-15  6  1   223.86
  27      1.31285274    -0.84317952  -268.10851351    -0.00000000    -0.00000000  0.20D-15  0.63D-16  6  3   233.66
  28      1.31285274    -0.84317952  -268.10851351    -0.00000000    -0.00000000  0.30D-16  0.11D-16  6  4   243.37
  29      1.31285275    -0.84317952  -268.10851351    -0.00000000    -0.00000000  0.71D-17  0.29D-17  6  5   253.18
  30      1.31285275    -0.84317952  -268.10851351    -0.00000000    -0.00000000  0.15D-17  0.54D-18  6  6   262.92
  31      1.31285275    -0.84317952  -268.10851351    -0.00000000    -0.00000000  0.36D-18  0.11D-18  6  2   272.65

 Norm of t1 vector:      0.13876069      S-energy:    -0.00282168      T1 diagnostic:  0.01617412
                                                                       D1 diagnostic:  0.06282436
 Norm of t2 vector:      0.54184704      P-energy:    -0.84035784
                                         Alpha-Beta:  -0.66491581
                                         Alpha-Alpha: -0.09147282
                                         Beta-Beta:   -0.08396921

 Spin contamination <S**2-Sz**2-Sz>     0.00217598

 Memory could be reduced to 28.85 Mwords without degradation in triples
 

 RESULTS
 =======

  Reference energy                   -267.265333991309
  UCCSD singles energy                 -0.002821676506
  UCCSD pair energy                    -0.840357841521
  UCCSD correlation energy             -0.843179518026
  Triples (T) contribution             -0.024981169205
  Total correlation energy             -0.868160687231
 
  RHF-UCCSD energy                   -268.108513509335
  RHF-UCCSD[T] energy                -268.134830826503
  RHF-UCCSD-T energy                 -268.133073212628
 !RHF-UCCSD(T) energy                -268.133494678539

 Program statistics:

 Available memory in ccsd:               999997692
 Min. memory needed in ccsd:               7337057
 Max. memory used in ccsd:                10523002
 Max. memory used in cckext:              10867977 (31 integral passes)
 Max. memory used in cckint:              12633073 ( 1 integral passes)



 **********************************************************************************************************************************
 DATASETS  * FILE   NREC   LENGTH (MB)   RECORD NAMES
              1      18        3.17       500      610      700      900      950      970     1000      129      960     1100   
                                          VAR    BASINP    GEOM    SYMINP    ZMAT    AOBASIS   BASIS     P2S    ABASIS      S 
                                         1400     1410     1200     1210     1080     1600     1650     1700   
                                           T        V       H0       H01     AOSYM     SMH    MOLCAS    OPER   

              2       3        0.77       700     1000     2100   
                                         GEOM     BASIS     RHF  

 PROGRAMS   *        TOTAL  UCCSD(T)       RHF       INT
 CPU TIMES  *       354.54    350.83      1.96      1.68
 REAL TIME  *       369.81 SEC
 DISK USED  *         1.30 GB      
 SF USED    *       553.73 MB      
 GA USED    *         0.00 MB       (max)       0.00 MB       (current)
 **********************************************************************************************************************************

        UCCSD(T)        RHF-SCF 
   -268.13349468   -267.26533399
 **********************************************************************************************************************************
 Variable memory released
