
    -----------------------------------------------------------------------
          Psi4: An Open-Source Ab Initio Electronic Structure Package
                               Psi4 1.4a2.dev478 

                         Git: Rev {master} f722895 dirty


    R. M. Parrish, L. A. Burns, D. G. A. Smith, A. C. Simmonett,
    A. E. DePrince III, E. G. Hohenstein, U. Bozkaya, A. Yu. Sokolov,
    R. Di Remigio, R. M. Richard, J. F. Gonthier, A. M. James,
    H. R. McAlexander, A. Kumar, M. Saitow, X. Wang, B. P. Pritchard,
    P. Verma, H. F. Schaefer III, K. Patkowski, R. A. King, E. F. Valeev,
    F. A. Evangelista, J. M. Turney, T. D. Crawford, and C. D. Sherrill,
    J. Chem. Theory Comput. 13(7) pp 3185--3197 (2017).
    (doi: 10.1021/acs.jctc.7b00174)


                         Additional Contributions by
    P. Kraus, H. Kruse, M. H. Lechner, M. C. Schieber, R. A. Shaw,
    A. Alenaizan, R. Galvelis, Z. L. Glick, S. Lehtola, and J. P. Misiewicz

    -----------------------------------------------------------------------


    Psi4 started on: Monday, 08 June 2020 03:00PM

    Process ID: 29009
    Host:       n087
    PSIDATADIR: /opt/psi/4/master/share/psi4
    Memory:     500.0 MiB
    Threads:    4
    
  ==> Input File <==

--------------------------------------------------------------------------
set memory 40Gb

molecule {
    C   -1.174143750690   -0.774963495581   -0.000122054786
    H   -1.619161817890   -1.211058947381   -0.891063737386
    H   -1.619236641990   -1.211251475481    0.890686519114
    C   -1.174259935390    0.774782497019    0.000039298714
    H   -1.619408715490    1.210812725519    0.890946481514
    H   -1.619363714790    1.211001803819   -0.890797846286
    C    0.352842188210    0.922941046229    0.000099403193
    H    0.838443079352    1.892238495893    0.000209379922
    O    0.767364309607    0.000002057077   -1.027348504652
    C    0.353084229850   -0.922443885859   -0.000074630044
    H    0.839304618442   -1.892399150198   -0.000156526686
    O    0.767292588138   -0.000197885339    1.027403078245
}

set {
    e_convergence 10
    d_convergence 10
    freeze_core True
    basis_guess True
    cc_type conv
    maxiter 300
}

E = energy('mp2/heavy-aug-cc-pV(Q+d)Z')
psi4.print_out("\n========================OPTAVC-XTPL==========================\n\n")
psi4.print_out("MP2/QZ correlation energy {}\n".format(variable("MP2 CORRELATION ENERGY")))
psi4.print_out("SCF/QZ reference energy {}\n".format(variable("CURRENT REFERENCE ENERGY")))
psi4.print_out("\n\n=============================================================\n")

E = energy('mp2/heavy-aug-cc-pV(T+d)Z')
psi4.print_out("\n========================OPTAVC-XTPL==========================\n\n")
psi4.print_out("MP2/TZ correlation energy {}".format(variable("MP2 CORRELATION ENERGY")))
psi4.print_out("\n\n=============================================================\n")
--------------------------------------------------------------------------

Scratch directory: /tmp/

Scratch directory: /tmp/
    SCF Algorithm Type (re)set to DF.

*** tstart() called on n087
*** at Mon Jun  8 15:00:20 2020


  //>>>>>>>>>>>>>>>>>>>>>>>>>>>>>>>>>>>//
  //      Guess SCF, pcseg-0 Basis     //
  //<<<<<<<<<<<<<<<<<<<<<<<<<<<<<<<<<<<//

   => Loading Basis Set <=

    Name: PCSEG-0
    Role: ORBITAL
    Keyword: BASIS
    atoms 1, 4, 7, 10     entry C          line    71 file /opt/psi/4/master/share/psi4/basis/pcseg-0.gbs 
    atoms 2-3, 5-6, 8, 11 entry H          line    13 file /opt/psi/4/master/share/psi4/basis/pcseg-0.gbs 
    atoms 9, 12           entry O          line   103 file /opt/psi/4/master/share/psi4/basis/pcseg-0.gbs 


         ---------------------------------------------------------
                           SCF Castup computation                  
         ---------------------------------------------------------
                                   SCF
               by Justin Turney, Rob Parrish, Andy Simmonett
                          and Daniel G. A. Smith
                              RHF Reference
                        4 Threads,    500 MiB Core
         ---------------------------------------------------------

  ==> Geometry <==

    Molecular point group: c1
    Full point group: C1

    Geometry (in Angstrom), charge = 0, multiplicity = 1:

       Center              X                  Y                   Z               Mass       
    ------------   -----------------  -----------------  -----------------  -----------------
         C           -1.174143750690    -0.774963495581    -0.000122054786    12.000000000000
         H           -1.619161817890    -1.211058947381    -0.891063737386     1.007825032230
         H           -1.619236641990    -1.211251475481     0.890686519114     1.007825032230
         C           -1.174259935390     0.774782497019     0.000039298714    12.000000000000
         H           -1.619408715490     1.210812725519     0.890946481514     1.007825032230
         H           -1.619363714790     1.211001803819    -0.890797846286     1.007825032230
         C            0.352842188210     0.922941046229     0.000099403193    12.000000000000
         H            0.838443079352     1.892238495893     0.000209379922     1.007825032230
         O            0.767364309607     0.000002057077    -1.027348504652    15.994914619570
         C            0.353084229850    -0.922443885859    -0.000074630044    12.000000000000
         H            0.839304618442    -1.892399150198    -0.000156526686     1.007825032230
         O            0.767292588138    -0.000197885339     1.027403078245    15.994914619570

  Running in c1 symmetry.

  Rotational constants: A =      0.19847  B =      0.16230  C =      0.14674 [cm^-1]
  Rotational constants: A =   5949.99030  B =   4865.53844  C =   4399.29227 [MHz]
  Nuclear repulsion =  256.989544695509494

  Charge       = 0
  Multiplicity = 1
  Electrons    = 46
  Nalpha       = 23
  Nbeta        = 23

  ==> Algorithm <==

  SCF Algorithm Type is DF.
  DIIS enabled.
  MOM disabled.
  Fractional occupation disabled.
  Guess Type is SAD.
  Energy threshold   = 1.00e-10
  Density threshold  = 1.00e-10
  Integral threshold = 0.00e+00

  ==> Primary Basis <==

  Basis Set: PCSEG-0
    Blend: PCSEG-0
    Number of shells: 42
    Number of basis function: 66
    Number of Cartesian functions: 66
    Spherical Harmonics?: true
    Max angular momentum: 1

   => Loading Basis Set <=

    Name: (PCSEG-0 AUX)
    Role: JKFIT
    Keyword: DF_BASIS_SCF
    atoms 1, 4, 7, 10     entry C          line   198 file /opt/psi/4/master/share/psi4/basis/def2-universal-jkfit.gbs 
    atoms 2-3, 5-6, 8, 11 entry H          line    18 file /opt/psi/4/master/share/psi4/basis/def2-universal-jkfit.gbs 
    atoms 9, 12           entry O          line   318 file /opt/psi/4/master/share/psi4/basis/def2-universal-jkfit.gbs 

  ==> Integral Setup <==

  ==> DiskDFJK: Density-Fitted J/K Matrices <==

    J tasked:                  Yes
    K tasked:                  Yes
    wK tasked:                  No
    OpenMP threads:              4
    Integrals threads:           4
    Memory [MiB]:              375
    Algorithm:                Core
    Integral Cache:           NONE
    Schwarz Cutoff:          1E-12
    Fitting Condition:       1E-10

   => Auxiliary Basis Set <=

  Basis Set: (PCSEG-0 AUX)
    Blend: DEF2-UNIVERSAL-JKFIT
    Number of shells: 186
    Number of basis function: 562
    Number of Cartesian functions: 662
    Spherical Harmonics?: true
    Max angular momentum: 4

  Minimum eigenvalue in the overlap matrix is 1.2862977812E-03.
  Reciprocal condition number of the overlap matrix is 2.1247525242E-04.
    Using symmetric orthogonalization.

  ==> Pre-Iterations <==

  SCF Guess: Superposition of Atomic Densities via on-the-fly atomic UHF (no occupation information).

   -------------------------
    Irrep   Nso     Nmo    
   -------------------------
     A         66      66 
   -------------------------
    Total      66      66
   -------------------------

  ==> Iterations <==

                           Total Energy        Delta E     RMS |[F,P]|

   @DF-RHF iter SAD:  -303.69369565758245   -3.03694e+02   0.00000e+00 
   @DF-RHF iter   1:  -303.56590556089770    1.27790e-01   7.23988e-03 DIIS
   @DF-RHF iter   2:  -303.66493397849541   -9.90284e-02   3.96971e-03 DIIS
   @DF-RHF iter   3:  -303.69055711583707   -2.56231e-02   6.19832e-04 DIIS
   @DF-RHF iter   4:  -303.69174241370172   -1.18530e-03   1.96410e-04 DIIS
   @DF-RHF iter   5:  -303.69183814449451   -9.57308e-05   4.10641e-05 DIIS
   @DF-RHF iter   6:  -303.69184573770201   -7.59321e-06   8.38398e-06 DIIS
   @DF-RHF iter   7:  -303.69184614088499   -4.03183e-07   1.69308e-06 DIIS
   @DF-RHF iter   8:  -303.69184615506589   -1.41809e-08   5.43312e-07 DIIS
   @DF-RHF iter   9:  -303.69184615649431   -1.42842e-09   1.09491e-07 DIIS
   @DF-RHF iter  10:  -303.69184615657105   -7.67386e-11   1.85847e-08 DIIS
   @DF-RHF iter  11:  -303.69184615657292   -1.87583e-12   2.69350e-09 DIIS
   @DF-RHF iter  12:  -303.69184615657321   -2.84217e-13   4.26376e-10 DIIS
   @DF-RHF iter  13:  -303.69184615657298    2.27374e-13   1.31861e-10 DIIS
   @DF-RHF iter  14:  -303.69184615657332   -3.41061e-13   3.73464e-11 DIIS
  Energy and wave function converged.


  ==> Post-Iterations <==

    Orbital Energies [Eh]
    ---------------------

    Doubly Occupied:                                                      

       1A    -20.584446     2A    -20.584383     3A    -11.369589  
       4A    -11.369549     5A    -11.256151     6A    -11.255752  
       7A     -1.537211     8A     -1.312719     9A     -1.091699  
      10A     -1.008947    11A     -0.821912    12A     -0.790195  
      13A     -0.768319    14A     -0.680506    15A     -0.662920  
      16A     -0.658332    17A     -0.552547    18A     -0.534469  
      19A     -0.527219    20A     -0.524428    21A     -0.519449  
      22A     -0.466892    23A     -0.443233  

    Virtual:                                                              

      24A      0.203105    25A      0.231148    26A      0.236103  
      27A      0.242210    28A      0.252989    29A      0.267369  
      30A      0.314392    31A      0.350181    32A      0.350882  
      33A      0.381997    34A      0.406772    35A      0.464618  
      36A      0.570144    37A      0.796336    38A      0.808062  
      39A      0.820782    40A      0.925846    41A      0.932838  
      42A      0.947096    43A      0.949970    44A      1.003374  
      45A      1.005074    46A      1.030035    47A      1.060800  
      48A      1.072413    49A      1.134196    50A      1.149060  
      51A      1.170451    52A      1.173953    53A      1.210888  
      54A      1.237919    55A      1.424479    56A      1.454753  
      57A      1.482300    58A      1.522022    59A      1.691321  
      60A      1.705453    61A      1.928022    62A      1.950771  
      63A      2.140045    64A      2.299080    65A      2.374927  
      66A      2.441098  

    Final Occupation by Irrep:
              A 
    DOCC [    23 ]

  @DF-RHF Final Energy:  -303.69184615657332

   => Energetics <=

    Nuclear Repulsion Energy =            256.9895446955094940
    One-Electron Energy =                -922.7210481845004324
    Two-Electron Energy =                 362.0396573324176188
    Total Energy =                       -303.6918461565733196

Computation Completed

  //>>>>>>>>>>>>>>>>>>>>>>>>>>>>>>>>>>>//
  //                SCF                //
  //<<<<<<<<<<<<<<<<<<<<<<<<<<<<<<<<<<<//

   => Loading Basis Set <=

    Name: HEAVY-AUG-CC-PV(Q+D)Z
    Role: ORBITAL
    Keyword: BASIS
    atoms 1, 4, 7, 10     entry C          line   333 file /opt/psi/4/master/share/psi4/basis/heavy-aug-cc-pv_qpd_z.gbs 
    atoms 2-3, 5-6, 8, 11 entry H          line    86 file /opt/psi/4/master/share/psi4/basis/heavy-aug-cc-pv_qpd_z.gbs 
    atoms 9, 12           entry O          line   453 file /opt/psi/4/master/share/psi4/basis/heavy-aug-cc-pv_qpd_z.gbs 


         ---------------------------------------------------------
                                   SCF
               by Justin Turney, Rob Parrish, Andy Simmonett
                          and Daniel G. A. Smith
                              RHF Reference
                        4 Threads,    500 MiB Core
         ---------------------------------------------------------

  ==> Geometry <==

    Molecular point group: c1
    Full point group: C1

    Geometry (in Angstrom), charge = 0, multiplicity = 1:

       Center              X                  Y                   Z               Mass       
    ------------   -----------------  -----------------  -----------------  -----------------
         C           -1.174143750690    -0.774963495581    -0.000122054786    12.000000000000
         H           -1.619161817890    -1.211058947381    -0.891063737386     1.007825032230
         H           -1.619236641990    -1.211251475481     0.890686519114     1.007825032230
         C           -1.174259935390     0.774782497019     0.000039298714    12.000000000000
         H           -1.619408715490     1.210812725519     0.890946481514     1.007825032230
         H           -1.619363714790     1.211001803819    -0.890797846286     1.007825032230
         C            0.352842188210     0.922941046229     0.000099403193    12.000000000000
         H            0.838443079352     1.892238495893     0.000209379922     1.007825032230
         O            0.767364309607     0.000002057077    -1.027348504652    15.994914619570
         C            0.353084229850    -0.922443885859    -0.000074630044    12.000000000000
         H            0.839304618442    -1.892399150198    -0.000156526686     1.007825032230
         O            0.767292588138    -0.000197885339     1.027403078245    15.994914619570

  Running in c1 symmetry.

  Rotational constants: A =      0.19847  B =      0.16230  C =      0.14674 [cm^-1]
  Rotational constants: A =   5949.99030  B =   4865.53844  C =   4399.29227 [MHz]
  Nuclear repulsion =  256.989544695509494

  Charge       = 0
  Multiplicity = 1
  Electrons    = 46
  Nalpha       = 23
  Nbeta        = 23

  ==> Algorithm <==

  SCF Algorithm Type is DF.
  DIIS enabled.
  MOM disabled.
  Fractional occupation disabled.
  Guess Type is SAD.
  Energy threshold   = 1.00e-10
  Density threshold  = 1.00e-10
  Integral threshold = 0.00e+00

  ==> Primary Basis <==

  Basis Set: HEAVY-AUG-CC-PV(Q+D)Z
    Blend: HEAVY-AUG-CC-PV(Q+D)Z
    Number of shells: 180
    Number of basis function: 660
    Number of Cartesian functions: 840
    Spherical Harmonics?: true
    Max angular momentum: 4

   => Loading Basis Set <=

    Name: (HEAVY-AUG-CC-PV(Q+D)Z AUX)
    Role: JKFIT
    Keyword: DF_BASIS_SCF
    atoms 1, 4, 7, 10     entry C          line   214 file /opt/psi/4/master/share/psi4/basis/heavy-aug-cc-pvqz-jkfit.gbs 
    atoms 2-3, 5-6, 8, 11 entry H          line   116 file /opt/psi/4/master/share/psi4/basis/heavy-aug-cc-pvqz-jkfit.gbs 
    atoms 9, 12           entry O          line   354 file /opt/psi/4/master/share/psi4/basis/heavy-aug-cc-pvqz-jkfit.gbs 


  Computing basis projection from PCSEG-0 to HEAVY-AUG-CC-PV(Q+D)Z

  ==> Integral Setup <==

  ==> DiskDFJK: Density-Fitted J/K Matrices <==

    J tasked:                  Yes
    K tasked:                  Yes
    wK tasked:                  No
    OpenMP threads:              4
    Integrals threads:           4
    Memory [MiB]:              375
    Algorithm:                Disk
    Integral Cache:           NONE
    Schwarz Cutoff:          1E-12
    Fitting Condition:       1E-10

   => Auxiliary Basis Set <=

  Basis Set: (HEAVY-AUG-CC-PV(Q+D)Z AUX)
    Blend: HEAVY-AUG-CC-PVQZ-JKFIT
    Number of shells: 282
    Number of basis function: 1158
    Number of Cartesian functions: 1584
    Spherical Harmonics?: true
    Max angular momentum: 5

  Minimum eigenvalue in the overlap matrix is 1.0934762082E-06.
  Reciprocal condition number of the overlap matrix is 7.0121313443E-08.
    Using symmetric orthogonalization.

  ==> Pre-Iterations <==

  SCF Guess: Orbitals guess was supplied from a previous computation.

   -------------------------
    Irrep   Nso     Nmo    
   -------------------------
     A        660     660 
   -------------------------
    Total     660     660
   -------------------------

  ==> Iterations <==

                           Total Energy        Delta E     RMS |[F,P]|

   @DF-RHF iter   0:  -304.22255405544030   -3.04223e+02   4.48065e-03 
   @DF-RHF iter   1:  -304.73371866677530   -5.11165e-01   3.36433e-04 DIIS
   @DF-RHF iter   2:  -304.74974168342845   -1.60230e-02   1.53539e-04 DIIS
   @DF-RHF iter   3:  -304.75360822448295   -3.86654e-03   2.81095e-05 DIIS
   @DF-RHF iter   4:  -304.75388519984983   -2.76975e-04   8.44511e-06 DIIS
   @DF-RHF iter   5:  -304.75390746885074   -2.22690e-05   3.57528e-06 DIIS
   @DF-RHF iter   6:  -304.75391126755994   -3.79871e-06   8.41274e-07 DIIS
   @DF-RHF iter   7:  -304.75391157643458   -3.08875e-07   1.79537e-07 DIIS
   @DF-RHF iter   8:  -304.75391159149774   -1.50632e-08   4.59001e-08 DIIS
   @DF-RHF iter   9:  -304.75391159259186   -1.09412e-09   1.49555e-08 DIIS
   @DF-RHF iter  10:  -304.75391159268071   -8.88463e-11   3.82853e-09 DIIS
   @DF-RHF iter  11:  -304.75391159268912   -8.41283e-12   9.82031e-10 DIIS
   @DF-RHF iter  12:  -304.75391159268855    5.68434e-13   2.82752e-10 DIIS
   @DF-RHF iter  13:  -304.75391159268963   -1.08002e-12   4.63854e-11 DIIS
  Energy and wave function converged.


  ==> Post-Iterations <==

    Orbital Energies [Eh]
    ---------------------

    Doubly Occupied:                                                      

       1A    -20.565133     2A    -20.565096     3A    -11.348528  
       4A    -11.348473     5A    -11.236628     6A    -11.236059  
       7A     -1.490544     8A     -1.292012     9A     -1.067348  
      10A     -0.987975    11A     -0.810305    12A     -0.789532  
      13A     -0.746653    14A     -0.672295    15A     -0.651164  
      16A     -0.646514    17A     -0.534535    18A     -0.524398  
      19A     -0.519510    20A     -0.512101    21A     -0.510084  
      22A     -0.459614    23A     -0.433693  

    Virtual:                                                              

      24A      0.041412    25A      0.042847    26A      0.050662  
      27A      0.062624    28A      0.063921    29A      0.079817  
      30A      0.080140    31A      0.083438    32A      0.101433  
      33A      0.110247    34A      0.111675    35A      0.112242  
      36A      0.139323    37A      0.151641    38A      0.166305  
      39A      0.171428    40A      0.178457    41A      0.178824  
      42A      0.188850    43A      0.188938    44A      0.199026  
      45A      0.207288    46A      0.226471    47A      0.227203  
      48A      0.229653    49A      0.257247    50A      0.260927  
      51A      0.270262    52A      0.270862    53A      0.271788  
      54A      0.286590    55A      0.288160    56A      0.291056  
      57A      0.301085    58A      0.316646    59A      0.320004  
      60A      0.325051    61A      0.333737    62A      0.337629  
      63A      0.355552    64A      0.358146    65A      0.369530  
      66A      0.380957    67A      0.388134    68A      0.389547  
      69A      0.391525    70A      0.391710    71A      0.395691  
      72A      0.398877    73A      0.412300    74A      0.420371  
      75A      0.420602    76A      0.440197    77A      0.453055  
      78A      0.456148    79A      0.462839    80A      0.495081  
      81A      0.515209    82A      0.518851    83A      0.522855  
      84A      0.528486    85A      0.550813    86A      0.571940  
      87A      0.574276    88A      0.585402    89A      0.589240  
      90A      0.598571    91A      0.600129    92A      0.613273  
      93A      0.629172    94A      0.641265    95A      0.653723  
      96A      0.659934    97A      0.684991    98A      0.689020  
      99A      0.695760   100A      0.704705   101A      0.716143  
     102A      0.716715   103A      0.732377   104A      0.743503  
     105A      0.757774   106A      0.764582   107A      0.789977  
     108A      0.790406   109A      0.794270   110A      0.795405  
     111A      0.827267   112A      0.832038   113A      0.833095  
     114A      0.849323   115A      0.860812   116A      0.875722  
     117A      0.884494   118A      0.897031   119A      0.920011  
     120A      0.938733   121A      0.947558   122A      0.957863  
     123A      0.961169   124A      0.988524   125A      1.002248  
     126A      1.010124   127A      1.011389   128A      1.016076  
     129A      1.034050   130A      1.035379   131A      1.046699  
     132A      1.062567   133A      1.070149   134A      1.075475  
     135A      1.096394   136A      1.114735   137A      1.128928  
     138A      1.140227   139A      1.154944   140A      1.159085  
     141A      1.160207   142A      1.166420   143A      1.168782  
     144A      1.175962   145A      1.191239   146A      1.198064  
     147A      1.208909   148A      1.221971   149A      1.229425  
     150A      1.234582   151A      1.238439   152A      1.239520  
     153A      1.244943   154A      1.276465   155A      1.276846  
     156A      1.287770   157A      1.288072   158A      1.306454  
     159A      1.314830   160A      1.327809   161A      1.370725  
     162A      1.371301   163A      1.407970   164A      1.409041  
     165A      1.437094   166A      1.442620   167A      1.458906  
     168A      1.469623   169A      1.474862   170A      1.485629  
     171A      1.491204   172A      1.508465   173A      1.525378  
     174A      1.534778   175A      1.544000   176A      1.593414  
     177A      1.594340   178A      1.618353   179A      1.620227  
     180A      1.625387   181A      1.626486   182A      1.647695  
     183A      1.682877   184A      1.687488   185A      1.699121  
     186A      1.723484   187A      1.728537   188A      1.730962  
     189A      1.757375   190A      1.775667   191A      1.776275  
     192A      1.815084   193A      1.865651   194A      1.870803  
     195A      1.885900   196A      1.900948   197A      1.911788  
     198A      1.923858   199A      1.960963   200A      1.968435  
     201A      1.997042   202A      1.997192   203A      2.018026  
     204A      2.026306   205A      2.026637   206A      2.028393  
     207A      2.032926   208A      2.039732   209A      2.044111  
     210A      2.106799   211A      2.116249   212A      2.125120  
     213A      2.141950   214A      2.143387   215A      2.174016  
     216A      2.187917   217A      2.188097   218A      2.209267  
     219A      2.249404   220A      2.258691   221A      2.265971  
     222A      2.293663   223A      2.293691   224A      2.306602  
     225A      2.335655   226A      2.341556   227A      2.359135  
     228A      2.363130   229A      2.366726   230A      2.373421  
     231A      2.389379   232A      2.395783   233A      2.403118  
     234A      2.418787   235A      2.441302   236A      2.442583  
     237A      2.462838   238A      2.485267   239A      2.492489  
     240A      2.517387   241A      2.526150   242A      2.533183  
     243A      2.548243   244A      2.560051   245A      2.584192  
     246A      2.587421   247A      2.621319   248A      2.626111  
     249A      2.633765   250A      2.645070   251A      2.660565  
     252A      2.682451   253A      2.705844   254A      2.714148  
     255A      2.729028   256A      2.730812   257A      2.751173  
     258A      2.763523   259A      2.763736   260A      2.801463  
     261A      2.803351   262A      2.811912   263A      2.832032  
     264A      2.858316   265A      2.866485   266A      2.918794  
     267A      2.935352   268A      2.940991   269A      2.966625  
     270A      2.974649   271A      2.986859   272A      2.986927  
     273A      3.009098   274A      3.031415   275A      3.041144  
     276A      3.048677   277A      3.074750   278A      3.076373  
     279A      3.083938   280A      3.103918   281A      3.109748  
     282A      3.136520   283A      3.142971   284A      3.153276  
     285A      3.169935   286A      3.187323   287A      3.222982  
     288A      3.248025   289A      3.259499   290A      3.267855  
     291A      3.288043   292A      3.292557   293A      3.320039  
     294A      3.362806   295A      3.366859   296A      3.394870  
     297A      3.398244   298A      3.402732   299A      3.431253  
     300A      3.452449   301A      3.464364   302A      3.474431  
     303A      3.501662   304A      3.523967   305A      3.535840  
     306A      3.549230   307A      3.572024   308A      3.598042  
     309A      3.609824   310A      3.618407   311A      3.635845  
     312A      3.661530   313A      3.690824   314A      3.706557  
     315A      3.716613   316A      3.746721   317A      3.752567  
     318A      3.757216   319A      3.805502   320A      3.834363  
     321A      3.843297   322A      3.843968   323A      3.872748  
     324A      3.908207   325A      3.909022   326A      3.917268  
     327A      3.950488   328A      3.962913   329A      3.981955  
     330A      4.040035   331A      4.041169   332A      4.048188  
     333A      4.060925   334A      4.085010   335A      4.099252  
     336A      4.119851   337A      4.134583   338A      4.157076  
     339A      4.173021   340A      4.202684   341A      4.206019  
     342A      4.217617   343A      4.238201   344A      4.244968  
     345A      4.273163   346A      4.292905   347A      4.317046  
     348A      4.331595   349A      4.335937   350A      4.357400  
     351A      4.406119   352A      4.427073   353A      4.439515  
     354A      4.452020   355A      4.459754   356A      4.489288  
     357A      4.497564   358A      4.511958   359A      4.517448  
     360A      4.540996   361A      4.568889   362A      4.593981  
     363A      4.627397   364A      4.652745   365A      4.669351  
     366A      4.691856   367A      4.696460   368A      4.698079  
     369A      4.718965   370A      4.736728   371A      4.749729  
     372A      4.761291   373A      4.787454   374A      4.823691  
     375A      4.823978   376A      4.826346   377A      4.844198  
     378A      4.846477   379A      4.901056   380A      4.942639  
     381A      4.976629   382A      5.000105   383A      5.000735  
     384A      5.020852   385A      5.058884   386A      5.122198  
     387A      5.154691   388A      5.163824   389A      5.182716  
     390A      5.237036   391A      5.244484   392A      5.253170  
     393A      5.276796   394A      5.288866   395A      5.304646  
     396A      5.341955   397A      5.357794   398A      5.374278  
     399A      5.407243   400A      5.488557   401A      5.512448  
     402A      5.554914   403A      5.581999   404A      5.626812  
     405A      5.646761   406A      5.649068   407A      5.669047  
     408A      5.781934   409A      5.821650   410A      5.828928  
     411A      5.837199   412A      5.897491   413A      5.973181  
     414A      6.030729   415A      6.102361   416A      6.137488  
     417A      6.192990   418A      6.214240   419A      6.227499  
     420A      6.236616   421A      6.292565   422A      6.335220  
     423A      6.337955   424A      6.345622   425A      6.366794  
     426A      6.398188   427A      6.417064   428A      6.459092  
     429A      6.490747   430A      6.495768   431A      6.511580  
     432A      6.520151   433A      6.531135   434A      6.576949  
     435A      6.586150   436A      6.612092   437A      6.638508  
     438A      6.643754   439A      6.656459   440A      6.680349  
     441A      6.699774   442A      6.699847   443A      6.716926  
     444A      6.748411   445A      6.765826   446A      6.782149  
     447A      6.814012   448A      6.819964   449A      6.855417  
     450A      6.885651   451A      6.912806   452A      6.915048  
     453A      6.921584   454A      6.925691   455A      6.938056  
     456A      6.976625   457A      6.988555   458A      7.010913  
     459A      7.038927   460A      7.092569   461A      7.101261  
     462A      7.104027   463A      7.134653   464A      7.152725  
     465A      7.179022   466A      7.194178   467A      7.195369  
     468A      7.218696   469A      7.222262   470A      7.249072  
     471A      7.276593   472A      7.304195   473A      7.352443  
     474A      7.359669   475A      7.366445   476A      7.417942  
     477A      7.429999   478A      7.436796   479A      7.469252  
     480A      7.528441   481A      7.541206   482A      7.583373  
     483A      7.599609   484A      7.604365   485A      7.635706  
     486A      7.707057   487A      7.730464   488A      7.741710  
     489A      7.750755   490A      7.782490   491A      7.801726  
     492A      7.833135   493A      7.841196   494A      7.842646  
     495A      7.917882   496A      7.936622   497A      7.942555  
     498A      7.986360   499A      7.996006   500A      8.013541  
     501A      8.015012   502A      8.041422   503A      8.084139  
     504A      8.105035   505A      8.145833   506A      8.154717  
     507A      8.190749   508A      8.192743   509A      8.322242  
     510A      8.325969   511A      8.334347   512A      8.351557  
     513A      8.378120   514A      8.408701   515A      8.412631  
     516A      8.478003   517A      8.495739   518A      8.497061  
     519A      8.532113   520A      8.551840   521A      8.557830  
     522A      8.586126   523A      8.609671   524A      8.611196  
     525A      8.649945   526A      8.686962   527A      8.706370  
     528A      8.716305   529A      8.762172   530A      8.813986  
     531A      8.825138   532A      8.837252   533A      8.840650  
     534A      8.840970   535A      8.879378   536A      8.899969  
     537A      8.903378   538A      8.936688   539A      8.957088  
     540A      8.993495   541A      9.015673   542A      9.027441  
     543A      9.033619   544A      9.048312   545A      9.055921  
     546A      9.085355   547A      9.109402   548A      9.117343  
     549A      9.171597   550A      9.176253   551A      9.189575  
     552A      9.233865   553A      9.248458   554A      9.314913  
     555A      9.343486   556A      9.350994   557A      9.351104  
     558A      9.366217   559A      9.400776   560A      9.453578  
     561A      9.497458   562A      9.513188   563A      9.525828  
     564A      9.556833   565A      9.648697   566A      9.658136  
     567A      9.727072   568A      9.755209   569A      9.768829  
     570A      9.790889   571A      9.834349   572A      9.899586  
     573A      9.919666   574A      9.931574   575A      9.959374  
     576A     10.067647   577A     10.116808   578A     10.233008  
     579A     10.242537   580A     10.255562   581A     10.294183  
     582A     10.417068   583A     10.477672   584A     10.508642  
     585A     10.509916   586A     10.594619   587A     10.628267  
     588A     10.644893   589A     10.780426   590A     10.793917  
     591A     10.823188   592A     10.826064   593A     10.971467  
     594A     11.001120   595A     11.063602   596A     11.072037  
     597A     11.101572   598A     11.106354   599A     11.130804  
     600A     11.152676   601A     11.162219   602A     11.209598  
     603A     11.225606   604A     11.251665   605A     11.334260  
     606A     11.383763   607A     11.451321   608A     11.455045  
     609A     11.494399   610A     11.498424   611A     11.508285  
     612A     11.542532   613A     11.619487   614A     11.644936  
     615A     11.721677   616A     11.813604   617A     11.819796  
     618A     11.847152   619A     11.886032   620A     11.907311  
     621A     12.198559   622A     12.253424   623A     12.316421  
     624A     12.378026   625A     12.641126   626A     12.651207  
     627A     12.825035   628A     12.869846   629A     12.964632  
     630A     13.027621   631A     13.074972   632A     13.075440  
     633A     13.182983   634A     13.239186   635A     13.254892  
     636A     13.354302   637A     13.357205   638A     13.386157  
     639A     13.421462   640A     13.511847   641A     13.523378  
     642A     13.532437   643A     13.717444   644A     13.736981  
     645A     13.788607   646A     13.812900   647A     13.846699  
     648A     13.907926   649A     13.968276   650A     13.978965  
     651A     14.123481   652A     14.154661   653A     14.689700  
     654A     14.883103   655A     27.256327   656A     27.848513  
     657A     28.043979   658A     28.610304   659A     44.795960  
     660A     45.694355  

    Final Occupation by Irrep:
              A 
    DOCC [    23 ]

  @DF-RHF Final Energy:  -304.75391159268963

   => Energetics <=

    Nuclear Repulsion Energy =            256.9895446955094940
    One-Electron Energy =                -925.5905292801406858
    Two-Electron Energy =                 363.8470729919415589
    Total Energy =                       -304.7539115926896329

Computation Completed


Properties will be evaluated at   0.000000,   0.000000,   0.000000 [a0]

Properties computed using the SCF density matrix

  Nuclear Dipole Moment: [e a0]
     X:    -4.4919      Y:    -0.0006      Z:    -0.0002

  Electronic Dipole Moment: [e a0]
     X:     3.7202      Y:     0.0019      Z:     0.0001

  Dipole Moment: [e a0]
     X:    -0.7717      Y:     0.0013      Z:    -0.0000     Total:     0.7717

  Dipole Moment: [D]
     X:    -1.9615      Y:     0.0034      Z:    -0.0001     Total:     1.9615


*** tstop() called on n087 at Mon Jun  8 15:01:00 2020
Module time:
	user time   =     146.10 seconds =       2.44 minutes
	system time =       5.74 seconds =       0.10 minutes
	total time  =         40 seconds =       0.67 minutes
Total time:
	user time   =     146.10 seconds =       2.44 minutes
	system time =       5.74 seconds =       0.10 minutes
	total time  =         40 seconds =       0.67 minutes

*** tstart() called on n087
*** at Mon Jun  8 15:01:00 2020


  //>>>>>>>>>>>>>>>>>>>>>>>>>>>>>>>>>>>//
  //               DFMP2               //
  //<<<<<<<<<<<<<<<<<<<<<<<<<<<<<<<<<<<//

   => Loading Basis Set <=

    Name: (HEAVY-AUG-CC-PV(Q+D)Z AUX)
    Role: RIFIT
    Keyword: DF_BASIS_MP2
    atoms 1, 4, 7, 10     entry C          line   180 file /opt/psi/4/master/share/psi4/basis/heavy-aug-cc-pvqz-ri.gbs 
    atoms 2-3, 5-6, 8, 11 entry H          line    44 file /opt/psi/4/master/share/psi4/basis/heavy-aug-cc-pvqz-ri.gbs 
    atoms 9, 12           entry O          line   328 file /opt/psi/4/master/share/psi4/basis/heavy-aug-cc-pvqz-ri.gbs 

	 --------------------------------------------------------
	                          DF-MP2                         
	      2nd-Order Density-Fitted Moller-Plesset Theory     
	              RMP2 Wavefunction,   4 Threads             
	                                                         
	        Rob Parrish, Justin Turney, Andy Simmonett,      
	           Ed Hohenstein, and C. David Sherrill          
	 --------------------------------------------------------

   => Auxiliary Basis Set <=

  Basis Set: (HEAVY-AUG-CC-PV(Q+D)Z AUX)
    Blend: HEAVY-AUG-CC-PVQZ-RI
    Number of shells: 306
    Number of basis function: 1338
    Number of Cartesian functions: 1842
    Spherical Harmonics?: true
    Max angular momentum: 5

	 --------------------------------------------------------
	                 NBF =   660, NAUX =  1338
	 --------------------------------------------------------
	   CLASS    FOCC     OCC    AOCC    AVIR     VIR    FVIR
	   PAIRS       6      23      17     637     637       0
	 --------------------------------------------------------

	-----------------------------------------------------------
	 ==================> DF-MP2 Energies <==================== 
	-----------------------------------------------------------
	 Reference Energy          =    -304.7539115926896329 [Eh]
	 Singles Energy            =      -0.0000000000000000 [Eh]
	 Same-Spin Energy          =      -0.2941222628361508 [Eh]
	 Opposite-Spin Energy      =      -0.9238604945434793 [Eh]
	 Correlation Energy        =      -1.2179827573796302 [Eh]
	 Total Energy              =    -305.9718943500692490 [Eh]
	-----------------------------------------------------------
	 ================> DF-SCS-MP2 Energies <================== 
	-----------------------------------------------------------
	 SCS Same-Spin Scale       =       0.3333333333333333 [-]
	 SCS Opposite-Spin Scale   =       1.2000000000000000 [-]
	 SCS Same-Spin Energy      =      -0.0980407542787169 [Eh]
	 SCS Opposite-Spin Energy  =      -1.1086325934521750 [Eh]
	 SCS Correlation Energy    =      -1.2066733477308920 [Eh]
	 SCS Total Energy          =    -305.9605849404205173 [Eh]
	-----------------------------------------------------------


*** tstop() called on n087 at Mon Jun  8 15:01:08 2020
Module time:
	user time   =      29.90 seconds =       0.50 minutes
	system time =       0.55 seconds =       0.01 minutes
	total time  =          8 seconds =       0.13 minutes
Total time:
	user time   =     176.00 seconds =       2.93 minutes
	system time =       6.29 seconds =       0.10 minutes
	total time  =         48 seconds =       0.80 minutes

========================OPTAVC-XTPL==========================

MP2/QZ correlation energy -1.2179827573796302
SCF/QZ reference energy -304.75391159268963


=============================================================

Scratch directory: /tmp/

Scratch directory: /tmp/
    SCF Algorithm Type (re)set to DF.

*** tstart() called on n087
*** at Mon Jun  8 15:01:08 2020


  //>>>>>>>>>>>>>>>>>>>>>>>>>>>>>>>>>>>//
  //      Guess SCF, pcseg-0 Basis     //
  //<<<<<<<<<<<<<<<<<<<<<<<<<<<<<<<<<<<//

   => Loading Basis Set <=

    Name: PCSEG-0
    Role: ORBITAL
    Keyword: BASIS
    atoms 1, 4, 7, 10     entry C          line    71 file /opt/psi/4/master/share/psi4/basis/pcseg-0.gbs 
    atoms 2-3, 5-6, 8, 11 entry H          line    13 file /opt/psi/4/master/share/psi4/basis/pcseg-0.gbs 
    atoms 9, 12           entry O          line   103 file /opt/psi/4/master/share/psi4/basis/pcseg-0.gbs 


         ---------------------------------------------------------
                           SCF Castup computation                  
         ---------------------------------------------------------
                                   SCF
               by Justin Turney, Rob Parrish, Andy Simmonett
                          and Daniel G. A. Smith
                              RHF Reference
                        4 Threads,    500 MiB Core
         ---------------------------------------------------------

  ==> Geometry <==

    Molecular point group: c1
    Full point group: C1

    Geometry (in Angstrom), charge = 0, multiplicity = 1:

       Center              X                  Y                   Z               Mass       
    ------------   -----------------  -----------------  -----------------  -----------------
         C           -1.174143750690    -0.774963495581    -0.000122054786    12.000000000000
         H           -1.619161817890    -1.211058947381    -0.891063737386     1.007825032230
         H           -1.619236641990    -1.211251475481     0.890686519114     1.007825032230
         C           -1.174259935390     0.774782497019     0.000039298714    12.000000000000
         H           -1.619408715490     1.210812725519     0.890946481514     1.007825032230
         H           -1.619363714790     1.211001803819    -0.890797846286     1.007825032230
         C            0.352842188210     0.922941046229     0.000099403193    12.000000000000
         H            0.838443079352     1.892238495893     0.000209379922     1.007825032230
         O            0.767364309607     0.000002057077    -1.027348504652    15.994914619570
         C            0.353084229850    -0.922443885859    -0.000074630044    12.000000000000
         H            0.839304618442    -1.892399150198    -0.000156526686     1.007825032230
         O            0.767292588138    -0.000197885339     1.027403078245    15.994914619570

  Running in c1 symmetry.

  Rotational constants: A =      0.19847  B =      0.16230  C =      0.14674 [cm^-1]
  Rotational constants: A =   5949.99030  B =   4865.53844  C =   4399.29227 [MHz]
  Nuclear repulsion =  256.989544695509494

  Charge       = 0
  Multiplicity = 1
  Electrons    = 46
  Nalpha       = 23
  Nbeta        = 23

  ==> Algorithm <==

  SCF Algorithm Type is DF.
  DIIS enabled.
  MOM disabled.
  Fractional occupation disabled.
  Guess Type is SAD.
  Energy threshold   = 1.00e-10
  Density threshold  = 1.00e-10
  Integral threshold = 0.00e+00

  ==> Primary Basis <==

  Basis Set: PCSEG-0
    Blend: PCSEG-0
    Number of shells: 42
    Number of basis function: 66
    Number of Cartesian functions: 66
    Spherical Harmonics?: true
    Max angular momentum: 1

   => Loading Basis Set <=

    Name: (PCSEG-0 AUX)
    Role: JKFIT
    Keyword: DF_BASIS_SCF
    atoms 1, 4, 7, 10     entry C          line   198 file /opt/psi/4/master/share/psi4/basis/def2-universal-jkfit.gbs 
    atoms 2-3, 5-6, 8, 11 entry H          line    18 file /opt/psi/4/master/share/psi4/basis/def2-universal-jkfit.gbs 
    atoms 9, 12           entry O          line   318 file /opt/psi/4/master/share/psi4/basis/def2-universal-jkfit.gbs 

  ==> Integral Setup <==

  ==> DiskDFJK: Density-Fitted J/K Matrices <==

    J tasked:                  Yes
    K tasked:                  Yes
    wK tasked:                  No
    OpenMP threads:              4
    Integrals threads:           4
    Memory [MiB]:              375
    Algorithm:                Core
    Integral Cache:           NONE
    Schwarz Cutoff:          1E-12
    Fitting Condition:       1E-10

   => Auxiliary Basis Set <=

  Basis Set: (PCSEG-0 AUX)
    Blend: DEF2-UNIVERSAL-JKFIT
    Number of shells: 186
    Number of basis function: 562
    Number of Cartesian functions: 662
    Spherical Harmonics?: true
    Max angular momentum: 4

  Minimum eigenvalue in the overlap matrix is 1.2862977812E-03.
  Reciprocal condition number of the overlap matrix is 2.1247525242E-04.
    Using symmetric orthogonalization.

  ==> Pre-Iterations <==

  SCF Guess: Superposition of Atomic Densities via on-the-fly atomic UHF (no occupation information).

   -------------------------
    Irrep   Nso     Nmo    
   -------------------------
     A         66      66 
   -------------------------
    Total      66      66
   -------------------------

  ==> Iterations <==

                           Total Energy        Delta E     RMS |[F,P]|

   @DF-RHF iter SAD:  -303.69369565754494   -3.03694e+02   0.00000e+00 
   @DF-RHF iter   1:  -303.56590556086468    1.27790e-01   7.23988e-03 DIIS
   @DF-RHF iter   2:  -303.66493397846574   -9.90284e-02   3.96971e-03 DIIS
   @DF-RHF iter   3:  -303.69055711580779   -2.56231e-02   6.19832e-04 DIIS
   @DF-RHF iter   4:  -303.69174241367307   -1.18530e-03   1.96410e-04 DIIS
   @DF-RHF iter   5:  -303.69183814446575   -9.57308e-05   4.10641e-05 DIIS
   @DF-RHF iter   6:  -303.69184573767279   -7.59321e-06   8.38398e-06 DIIS
   @DF-RHF iter   7:  -303.69184614085617   -4.03183e-07   1.69308e-06 DIIS
   @DF-RHF iter   8:  -303.69184615503690   -1.41807e-08   5.43312e-07 DIIS
   @DF-RHF iter   9:  -303.69184615646549   -1.42859e-09   1.09491e-07 DIIS
   @DF-RHF iter  10:  -303.69184615654217   -7.66818e-11   1.85847e-08 DIIS
   @DF-RHF iter  11:  -303.69184615654422   -2.04636e-12   2.69350e-09 DIIS
   @DF-RHF iter  12:  -303.69184615654427   -5.68434e-14   4.26376e-10 DIIS
   @DF-RHF iter  13:  -303.69184615654427    0.00000e+00   1.31859e-10 DIIS
   @DF-RHF iter  14:  -303.69184615654427    0.00000e+00   3.73459e-11 DIIS
  Energy and wave function converged.


  ==> Post-Iterations <==

    Orbital Energies [Eh]
    ---------------------

    Doubly Occupied:                                                      

       1A    -20.584446     2A    -20.584383     3A    -11.369589  
       4A    -11.369549     5A    -11.256151     6A    -11.255752  
       7A     -1.537211     8A     -1.312719     9A     -1.091699  
      10A     -1.008947    11A     -0.821912    12A     -0.790195  
      13A     -0.768319    14A     -0.680506    15A     -0.662920  
      16A     -0.658332    17A     -0.552547    18A     -0.534469  
      19A     -0.527219    20A     -0.524428    21A     -0.519449  
      22A     -0.466892    23A     -0.443233  

    Virtual:                                                              

      24A      0.203105    25A      0.231148    26A      0.236103  
      27A      0.242210    28A      0.252989    29A      0.267369  
      30A      0.314392    31A      0.350181    32A      0.350882  
      33A      0.381997    34A      0.406772    35A      0.464618  
      36A      0.570144    37A      0.796336    38A      0.808062  
      39A      0.820782    40A      0.925846    41A      0.932838  
      42A      0.947096    43A      0.949970    44A      1.003374  
      45A      1.005074    46A      1.030035    47A      1.060800  
      48A      1.072413    49A      1.134196    50A      1.149060  
      51A      1.170451    52A      1.173953    53A      1.210888  
      54A      1.237919    55A      1.424479    56A      1.454753  
      57A      1.482300    58A      1.522022    59A      1.691321  
      60A      1.705453    61A      1.928022    62A      1.950771  
      63A      2.140045    64A      2.299080    65A      2.374927  
      66A      2.441098  

    Final Occupation by Irrep:
              A 
    DOCC [    23 ]

  @DF-RHF Final Energy:  -303.69184615654427

   => Energetics <=

    Nuclear Repulsion Energy =            256.9895446955094940
    One-Electron Energy =                -922.7210481846079801
    Two-Electron Energy =                 362.0396573325542136
    Total Energy =                       -303.6918461565442726

Computation Completed

  //>>>>>>>>>>>>>>>>>>>>>>>>>>>>>>>>>>>//
  //                SCF                //
  //<<<<<<<<<<<<<<<<<<<<<<<<<<<<<<<<<<<//

   => Loading Basis Set <=

    Name: HEAVY-AUG-CC-PV(T+D)Z
    Role: ORBITAL
    Keyword: BASIS
    atoms 1, 4, 7, 10     entry C          line   273 file /opt/psi/4/master/share/psi4/basis/heavy-aug-cc-pv_tpd_z.gbs 
    atoms 2-3, 5-6, 8, 11 entry H          line    86 file /opt/psi/4/master/share/psi4/basis/heavy-aug-cc-pv_tpd_z.gbs 
    atoms 9, 12           entry O          line   365 file /opt/psi/4/master/share/psi4/basis/heavy-aug-cc-pv_tpd_z.gbs 


         ---------------------------------------------------------
                                   SCF
               by Justin Turney, Rob Parrish, Andy Simmonett
                          and Daniel G. A. Smith
                              RHF Reference
                        4 Threads,    500 MiB Core
         ---------------------------------------------------------

  ==> Geometry <==

    Molecular point group: c1
    Full point group: C1

    Geometry (in Angstrom), charge = 0, multiplicity = 1:

       Center              X                  Y                   Z               Mass       
    ------------   -----------------  -----------------  -----------------  -----------------
         C           -1.174143750690    -0.774963495581    -0.000122054786    12.000000000000
         H           -1.619161817890    -1.211058947381    -0.891063737386     1.007825032230
         H           -1.619236641990    -1.211251475481     0.890686519114     1.007825032230
         C           -1.174259935390     0.774782497019     0.000039298714    12.000000000000
         H           -1.619408715490     1.210812725519     0.890946481514     1.007825032230
         H           -1.619363714790     1.211001803819    -0.890797846286     1.007825032230
         C            0.352842188210     0.922941046229     0.000099403193    12.000000000000
         H            0.838443079352     1.892238495893     0.000209379922     1.007825032230
         O            0.767364309607     0.000002057077    -1.027348504652    15.994914619570
         C            0.353084229850    -0.922443885859    -0.000074630044    12.000000000000
         H            0.839304618442    -1.892399150198    -0.000156526686     1.007825032230
         O            0.767292588138    -0.000197885339     1.027403078245    15.994914619570

  Running in c1 symmetry.

  Rotational constants: A =      0.19847  B =      0.16230  C =      0.14674 [cm^-1]
  Rotational constants: A =   5949.99030  B =   4865.53844  C =   4399.29227 [MHz]
  Nuclear repulsion =  256.989544695509494

  Charge       = 0
  Multiplicity = 1
  Electrons    = 46
  Nalpha       = 23
  Nbeta        = 23

  ==> Algorithm <==

  SCF Algorithm Type is DF.
  DIIS enabled.
  MOM disabled.
  Fractional occupation disabled.
  Guess Type is SAD.
  Energy threshold   = 1.00e-10
  Density threshold  = 1.00e-10
  Integral threshold = 0.00e+00

  ==> Primary Basis <==

  Basis Set: HEAVY-AUG-CC-PV(T+D)Z
    Blend: HEAVY-AUG-CC-PV(T+D)Z
    Number of shells: 120
    Number of basis function: 360
    Number of Cartesian functions: 420
    Spherical Harmonics?: true
    Max angular momentum: 3

   => Loading Basis Set <=

    Name: (HEAVY-AUG-CC-PV(T+D)Z AUX)
    Role: JKFIT
    Keyword: DF_BASIS_SCF
    atoms 1, 4, 7, 10     entry C          line   200 file /opt/psi/4/master/share/psi4/basis/heavy-aug-cc-pvtz-jkfit.gbs 
    atoms 2-3, 5-6, 8, 11 entry H          line   116 file /opt/psi/4/master/share/psi4/basis/heavy-aug-cc-pvtz-jkfit.gbs 
    atoms 9, 12           entry O          line   324 file /opt/psi/4/master/share/psi4/basis/heavy-aug-cc-pvtz-jkfit.gbs 


  Computing basis projection from PCSEG-0 to HEAVY-AUG-CC-PV(T+D)Z

  ==> Integral Setup <==

  ==> DiskDFJK: Density-Fitted J/K Matrices <==

    J tasked:                  Yes
    K tasked:                  Yes
    wK tasked:                  No
    OpenMP threads:              4
    Integrals threads:           4
    Memory [MiB]:              375
    Algorithm:                Disk
    Integral Cache:           NONE
    Schwarz Cutoff:          1E-12
    Fitting Condition:       1E-10

   => Auxiliary Basis Set <=

  Basis Set: (HEAVY-AUG-CC-PV(T+D)Z AUX)
    Blend: HEAVY-AUG-CC-PVTZ-JKFIT
    Number of shells: 240
    Number of basis function: 804
    Number of Cartesian functions: 996
    Spherical Harmonics?: true
    Max angular momentum: 4

  Minimum eigenvalue in the overlap matrix is 5.5278265491E-06.
  Reciprocal condition number of the overlap matrix is 4.0413502012E-07.
    Using symmetric orthogonalization.

  ==> Pre-Iterations <==

  SCF Guess: Orbitals guess was supplied from a previous computation.

   -------------------------
    Irrep   Nso     Nmo    
   -------------------------
     A        360     360 
   -------------------------
    Total     360     360
   -------------------------

  ==> Iterations <==

                           Total Energy        Delta E     RMS |[F,P]|

   @DF-RHF iter   0:  -304.36296655528440   -3.04363e+02   4.15800e-03 
   @DF-RHF iter   1:  -304.71637216336143   -3.53406e-01   5.72215e-04 DIIS
   @DF-RHF iter   2:  -304.73152642470313   -1.51543e-02   2.71560e-04 DIIS
   @DF-RHF iter   3:  -304.73521331041758   -3.68689e-03   4.87139e-05 DIIS
   @DF-RHF iter   4:  -304.73547719310784   -2.63883e-04   1.57726e-05 DIIS
   @DF-RHF iter   5:  -304.73549822394841   -2.10308e-05   6.25205e-06 DIIS
   @DF-RHF iter   6:  -304.73550211905996   -3.89511e-06   1.42107e-06 DIIS
   @DF-RHF iter   7:  -304.73550238465350   -2.65594e-07   3.12947e-07 DIIS
   @DF-RHF iter   8:  -304.73550239889084   -1.42373e-08   8.00598e-08 DIIS
   @DF-RHF iter   9:  -304.73550239982978   -9.38940e-10   2.59992e-08 DIIS
   @DF-RHF iter  10:  -304.73550239991511   -8.53220e-11   6.48170e-09 DIIS
   @DF-RHF iter  11:  -304.73550239992124   -6.13909e-12   1.69444e-09 DIIS
   @DF-RHF iter  12:  -304.73550239992244   -1.19371e-12   4.79791e-10 DIIS
   @DF-RHF iter  13:  -304.73550239992187    5.68434e-13   7.67030e-11 DIIS
  Energy and wave function converged.


  ==> Post-Iterations <==

    Orbital Energies [Eh]
    ---------------------

    Doubly Occupied:                                                      

       1A    -20.568079     2A    -20.568042     3A    -11.349629  
       4A    -11.349576     5A    -11.237710     6A    -11.237143  
       7A     -1.491350     8A     -1.292809     9A     -1.067598  
      10A     -0.988256    11A     -0.810400    12A     -0.789692  
      13A     -0.746609    14A     -0.672196    15A     -0.651184  
      16A     -0.646366    17A     -0.534459    18A     -0.524242  
      19A     -0.519378    20A     -0.512026    21A     -0.509885  
      22A     -0.459350    23A     -0.433492  

    Virtual:                                                              

      24A      0.050331    25A      0.050962    26A      0.059699  
      27A      0.072053    28A      0.073417    29A      0.092442  
      30A      0.093540    31A      0.096701    32A      0.116627  
      33A      0.126307    34A      0.127398    35A      0.130069  
      36A      0.162082    37A      0.176057    38A      0.195284  
      39A      0.204123    40A      0.206503    41A      0.214124  
      42A      0.220328    43A      0.228376    44A      0.233849  
      45A      0.249423    46A      0.268473    47A      0.268599  
      48A      0.277111    49A      0.295336    50A      0.300728  
      51A      0.312856    52A      0.331213    53A      0.335327  
      54A      0.341767    55A      0.347773    56A      0.356295  
      57A      0.356965    58A      0.362587    59A      0.374741  
      60A      0.397645    61A      0.404452    62A      0.412717  
      63A      0.421300    64A      0.432343    65A      0.446409  
      66A      0.457777    67A      0.464954    68A      0.485321  
      69A      0.492925    70A      0.503941    71A      0.510856  
      72A      0.516657    73A      0.519756    74A      0.526968  
      75A      0.528689    76A      0.543688    77A      0.545862  
      78A      0.580845    79A      0.591905    80A      0.608247  
      81A      0.613278    82A      0.620664    83A      0.653752  
      84A      0.658698    85A      0.673243    86A      0.722032  
      87A      0.735814    88A      0.747640    89A      0.753889  
      90A      0.770322    91A      0.780933    92A      0.791349  
      93A      0.797135    94A      0.815613    95A      0.818533  
      96A      0.828069    97A      0.843936    98A      0.877715  
      99A      0.891353   100A      0.926909   101A      0.928795  
     102A      0.938755   103A      0.946008   104A      0.970349  
     105A      0.985568   106A      0.998634   107A      1.032063  
     108A      1.037115   109A      1.038477   110A      1.060353  
     111A      1.082277   112A      1.096438   113A      1.114121  
     114A      1.120818   115A      1.138283   116A      1.160683  
     117A      1.185475   118A      1.222868   119A      1.247343  
     120A      1.251756   121A      1.261050   122A      1.283227  
     123A      1.321683   124A      1.329786   125A      1.335804  
     126A      1.352877   127A      1.373514   128A      1.383857  
     129A      1.398653   130A      1.403713   131A      1.415165  
     132A      1.446452   133A      1.447581   134A      1.457977  
     135A      1.483366   136A      1.498983   137A      1.505787  
     138A      1.528541   139A      1.546564   140A      1.560416  
     141A      1.581684   142A      1.586228   143A      1.586920  
     144A      1.589078   145A      1.599992   146A      1.654276  
     147A      1.656826   148A      1.670292   149A      1.677148  
     150A      1.683983   151A      1.698638   152A      1.707875  
     153A      1.715622   154A      1.731617   155A      1.735525  
     156A      1.750260   157A      1.752097   158A      1.791955  
     159A      1.799800   160A      1.806957   161A      1.822698  
     162A      1.901654   163A      1.902159   164A      1.930403  
     165A      1.939416   166A      1.949755   167A      1.984824  
     168A      1.990632   169A      2.003171   170A      2.007636  
     171A      2.026887   172A      2.046614   173A      2.055073  
     174A      2.058856   175A      2.150377   176A      2.151421  
     177A      2.208955   178A      2.252097   179A      2.300725  
     180A      2.333586   181A      2.392210   182A      2.401608  
     183A      2.419876   184A      2.443514   185A      2.450790  
     186A      2.472136   187A      2.503991   188A      2.508377  
     189A      2.540729   190A      2.579630   191A      2.628539  
     192A      2.646345   193A      2.682129   194A      2.685823  
     195A      2.723661   196A      2.769097   197A      2.787312  
     198A      2.875475   199A      2.875713   200A      2.890858  
     201A      2.914304   202A      2.921352   203A      2.953777  
     204A      2.958988   205A      2.963580   206A      3.076686  
     207A      3.097870   208A      3.119386   209A      3.127906  
     210A      3.181093   211A      3.186616   212A      3.205131  
     213A      3.215955   214A      3.240539   215A      3.261370  
     216A      3.306500   217A      3.332362   218A      3.408569  
     219A      3.412006   220A      3.414564   221A      3.434678  
     222A      3.441046   223A      3.471830   224A      3.484491  
     225A      3.500738   226A      3.524368   227A      3.538602  
     228A      3.602538   229A      3.626718   230A      3.630791  
     231A      3.667099   232A      3.682606   233A      3.695191  
     234A      3.706500   235A      3.728320   236A      3.730272  
     237A      3.749322   238A      3.816079   239A      3.832698  
     240A      3.842952   241A      3.865990   242A      3.873657  
     243A      3.926753   244A      3.951781   245A      3.959743  
     246A      3.961341   247A      3.964499   248A      4.003883  
     249A      4.018406   250A      4.048959   251A      4.053474  
     252A      4.073565   253A      4.105223   254A      4.111327  
     255A      4.144956   256A      4.163388   257A      4.169593  
     258A      4.180339   259A      4.185607   260A      4.211742  
     261A      4.234938   262A      4.245093   263A      4.257985  
     264A      4.263719   265A      4.267659   266A      4.315937  
     267A      4.343429   268A      4.365658   269A      4.424832  
     270A      4.471031   271A      4.479265   272A      4.481837  
     273A      4.495889   274A      4.511542   275A      4.526590  
     276A      4.552085   277A      4.583301   278A      4.637947  
     279A      4.688453   280A      4.689153   281A      4.702063  
     282A      4.706116   283A      4.730817   284A      4.743623  
     285A      4.755900   286A      4.805925   287A      4.820438  
     288A      4.821089   289A      4.837707   290A      4.885715  
     291A      4.907201   292A      4.958117   293A      4.963586  
     294A      4.964443   295A      5.096388   296A      5.117708  
     297A      5.125458   298A      5.190826   299A      5.193883  
     300A      5.238671   301A      5.266294   302A      5.282226  
     303A      5.394812   304A      5.417809   305A      5.435539  
     306A      5.465023   307A      5.472483   308A      5.581306  
     309A      5.581930   310A      5.596365   311A      5.653177  
     312A      5.704832   313A      5.712660   314A      5.717764  
     315A      5.861886   316A      5.868431   317A      5.898143  
     318A      5.925848   319A      6.060349   320A      6.123007  
     321A      6.140451   322A      6.205505   323A      6.240853  
     324A      6.281201   325A      6.284250   326A      6.347609  
     327A      6.383613   328A      6.493130   329A      6.559787  
     330A      6.900781   331A      6.901643   332A      6.939509  
     333A      6.962508   334A      6.995931   335A      7.024303  
     336A      7.104499   337A      7.128135   338A      7.172262  
     339A      7.189348   340A      7.226267   341A      7.238138  
     342A      7.389244   343A      7.487768   344A      7.587853  
     345A      7.608534   346A      7.633718   347A      7.736513  
     348A      7.793023   349A      7.820506   350A      7.910725  
     351A      8.037745   352A      8.194116   353A      8.219611  
     354A      8.226830   355A     14.244316   356A     15.439830  
     357A     15.550388   358A     15.866038   359A     17.388495  
     360A     18.707878  

    Final Occupation by Irrep:
              A 
    DOCC [    23 ]

  @DF-RHF Final Energy:  -304.73550239992187

   => Energetics <=

    Nuclear Repulsion Energy =            256.9895446955094940
    One-Electron Energy =                -925.5311507265505497
    Two-Electron Energy =                 363.8061036311191856
    Total Energy =                       -304.7355023999218702

Computation Completed


Properties will be evaluated at   0.000000,   0.000000,   0.000000 [a0]

Properties computed using the SCF density matrix

  Nuclear Dipole Moment: [e a0]
     X:    -4.4919      Y:    -0.0006      Z:    -0.0002

  Electronic Dipole Moment: [e a0]
     X:     3.7198      Y:     0.0019      Z:     0.0001

  Dipole Moment: [e a0]
     X:    -0.7721      Y:     0.0013      Z:    -0.0000     Total:     0.7721

  Dipole Moment: [D]
     X:    -1.9626      Y:     0.0034      Z:    -0.0001     Total:     1.9626


*** tstop() called on n087 at Mon Jun  8 15:01:18 2020
Module time:
	user time   =      35.76 seconds =       0.60 minutes
	system time =       2.00 seconds =       0.03 minutes
	total time  =         10 seconds =       0.17 minutes
Total time:
	user time   =     212.26 seconds =       3.54 minutes
	system time =       8.46 seconds =       0.14 minutes
	total time  =         58 seconds =       0.97 minutes

*** tstart() called on n087
*** at Mon Jun  8 15:01:18 2020


  //>>>>>>>>>>>>>>>>>>>>>>>>>>>>>>>>>>>//
  //               DFMP2               //
  //<<<<<<<<<<<<<<<<<<<<<<<<<<<<<<<<<<<//

   => Loading Basis Set <=

    Name: (HEAVY-AUG-CC-PV(T+D)Z AUX)
    Role: RIFIT
    Keyword: DF_BASIS_MP2
    atoms 1, 4, 7, 10     entry C          line   148 file /opt/psi/4/master/share/psi4/basis/heavy-aug-cc-pvtz-ri.gbs 
    atoms 2-3, 5-6, 8, 11 entry H          line    44 file /opt/psi/4/master/share/psi4/basis/heavy-aug-cc-pvtz-ri.gbs 
    atoms 9, 12           entry O          line   264 file /opt/psi/4/master/share/psi4/basis/heavy-aug-cc-pvtz-ri.gbs 

	 --------------------------------------------------------
	                          DF-MP2                         
	      2nd-Order Density-Fitted Moller-Plesset Theory     
	              RMP2 Wavefunction,   4 Threads             
	                                                         
	        Rob Parrish, Justin Turney, Andy Simmonett,      
	           Ed Hohenstein, and C. David Sherrill          
	 --------------------------------------------------------

   => Auxiliary Basis Set <=

  Basis Set: (HEAVY-AUG-CC-PV(T+D)Z AUX)
    Blend: HEAVY-AUG-CC-PVTZ-RI
    Number of shells: 228
    Number of basis function: 816
    Number of Cartesian functions: 1026
    Spherical Harmonics?: true
    Max angular momentum: 4

	 --------------------------------------------------------
	                 NBF =   360, NAUX =   816
	 --------------------------------------------------------
	   CLASS    FOCC     OCC    AOCC    AVIR     VIR    FVIR
	   PAIRS       6      23      17     337     337       0
	 --------------------------------------------------------

	-----------------------------------------------------------
	 ==================> DF-MP2 Energies <==================== 
	-----------------------------------------------------------
	 Reference Energy          =    -304.7355023999218702 [Eh]
	 Singles Energy            =      -0.0000000000000000 [Eh]
	 Same-Spin Energy          =      -0.2854783038971551 [Eh]
	 Opposite-Spin Energy      =      -0.8633332612227007 [Eh]
	 Correlation Energy        =      -1.1488115651198558 [Eh]
	 Total Energy              =    -305.8843139650417129 [Eh]
	-----------------------------------------------------------
	 ================> DF-SCS-MP2 Energies <================== 
	-----------------------------------------------------------
	 SCS Same-Spin Scale       =       0.3333333333333333 [-]
	 SCS Opposite-Spin Scale   =       1.2000000000000000 [-]
	 SCS Same-Spin Energy      =      -0.0951594346323850 [Eh]
	 SCS Opposite-Spin Energy  =      -1.0359999134672409 [Eh]
	 SCS Correlation Energy    =      -1.1311593480996258 [Eh]
	 SCS Total Energy          =    -305.8666617480214995 [Eh]
	-----------------------------------------------------------


*** tstop() called on n087 at Mon Jun  8 15:01:20 2020
Module time:
	user time   =       7.04 seconds =       0.12 minutes
	system time =       0.09 seconds =       0.00 minutes
	total time  =          2 seconds =       0.03 minutes
Total time:
	user time   =     219.30 seconds =       3.65 minutes
	system time =       8.55 seconds =       0.14 minutes
	total time  =         60 seconds =       1.00 minutes

========================OPTAVC-XTPL==========================

MP2/TZ correlation energy -1.1488115651198558

=============================================================

    Psi4 stopped on: Monday, 08 June 2020 03:01PM
    Psi4 wall time for execution: 0:00:59.61

*** Psi4 exiting successfully. Buy a developer a beer!
