
 Primary working directories    : /tmp/320938.610.gen4.q
 Secondary working directories  : /tmp/320938.610.gen4.q
 Wavefunction directory         : /home/vulcan/mel64643/wfu/
 Main file repository           : /tmp/320938.610.gen4.q/

 ARCHNAME  : Linux/x86_64
 FC        : /opt/intel/compilers_and_libraries_2016.1.150/linux/bin/intel64/ifort
 FCVERSION : 16.0.1
 BLASLIB   : -mkl
 id        : ccgc

 Nodes     nprocs
 n021         3
 Number of processes for MPI-2 version of Molpro:   nprocs(total)=    4   nprocs(compute)=    3   nprocs(helper)=    1
 ga_uses_ma=false, calling ma_init with nominal heap.
 GA-space will be limited to   8.0 MW (determined by -G option)

 Using customized tuning parameters: mindgm=10; mindgv=16; mindgc=4; mindgr=1; noblas=0; mincuda=1000; minvec=7
 default implementation of scratch files=sf  

 ***,Frequencies for min3
 memory,1000,m
 gthresh,energy=1.0d-10,orbital=1.0d-10,oneint=1.0d-16,twoint=1.0d-16,optgrad=1.0d-6,compress=1.0d-13
 geomtyp=xyz
 
  geometry = {
  12
  arbitrary comment
     C    1.776964391707    0.711398808326   -0.047331391796
     C    0.491811976407   -0.059992870174   -0.196493901896
     C    0.450332819107   -1.536294019674    0.101417522804
     O   -0.560767745493    0.727234937526    0.254453964104
     O   -1.837840335593    0.092269037726   -0.120531795196
     H    2.585373063107    0.211465914126   -0.611440883996
     H    1.660426393907    1.742887987326   -0.426532369096
     H    2.095123485707    0.774048097326    1.017650404504
     H   -0.502697262277   -1.980440604933   -0.219857518180
     H    1.280922886278   -2.048303250326   -0.417277190353
     H    0.561197265107   -1.719767213460    1.194694693480
     H   -1.988662223381    0.550197074623   -0.967054210630
  }
 
 basis=cc-pvdz
 {rhf;maxit,200}
 {uccsd(t);maxit,200}

 Variables initialized (661), CPU time= 0.01 sec
 Commands  initialized (458), CPU time= 0.01 sec, 486 directives.
 Default parameters read. Elapsed time= 0.08 sec

 Checking input...
 Passed
1


                                         ***  PROGRAM SYSTEM MOLPRO  ***
                         Copyright, University College Cardiff Consultants Limited, 2008

                                    Version 2010.1 linked May 16 2016 07:17:05


 **********************************************************************************************************************************
 LABEL *   Frequencies for min3                                                          
 Linux-4.4.3/n021(x86_64) 64 bit mpp version                                             DATE: 07-Mar-20          TIME: 04:33:20  
 **********************************************************************************************************************************

 SHA1:             9e8077add272b0f3cad6f7df79ec5211205f459d
 **********************************************************************************************************************************

 THRESHOLDS:

 ZERO    =  1.00D-12  ONEINT  =  1.00D-16  TWOINT  =  1.00D-16  PREFAC  =  1.00D-14  LOCALI  =  1.00D-09  EORDER  =  1.00D-04
 ENERGY  =  1.00D-10  ETEST   =  0.00D+00  EDENS   =  0.00D+00  THRDEDEF=  1.00D-06  GRADIENT=  1.00D-02  STEP    =  1.00D-03
 ORBITAL =  1.00D-10  CIVEC   =  1.00D-05  COEFF   =  1.00D-04  PRINTCI =  5.00D-02  PUNCHCI =  9.90D+01  OPTGRAD =  1.00D-06
 OPTENERG=  1.00D-06  OPTSTEP =  3.00D-04  THRGRAD =  1.00D-10  COMPRESS=  1.00D-13  VARMIN  =  1.00D-07  VARMAX  =  1.00D-03
 THRDOUB =  0.00D+00  THRDIV  =  1.00D-05  THRRED  =  1.00D-07  THRPSP  =  1.00D+00  THRDC   =  1.00D-10  THRCS   =  1.00D-10
 THRNRM  =  1.00D-08  THREQ   =  0.00D+00  THRDE   =  1.00D+00  THRREF  =  1.00D-05  SPARFAC =  1.00D+00  THRDLP  =  1.00D-07
 THRDIA  =  1.00D-10  THRDLS  =  1.00D-07  THRGPS  =  0.00D+00  THRKEX  =  0.00D+00  THRDIS  =  2.00D-01  THRVAR  =  1.00D-10
 THRLOC  =  1.00D-06  THRGAP  =  1.00D-06  THRLOCT = -1.00D+00  THRGAPT = -1.00D+00  THRORB  =  1.00D-06  THRMLTP =  0.00D+00
 THRCPQCI=  1.00D-10  KEXTA   =  0.00D+00  THRCOARS=  0.00D+00  SYMTOL  =  1.00D-06  GRADTOL =  1.00D-06  THROVL  =  1.00D-08
 THRORTH =  1.00D-08  GRID    =  1.00D-06  GRIDMAX =  1.00D-03  DTMAX   =  0.00D+00

 SETTING GEOMTYP        =    XYZ

 Variable memory set to 1000000000 words,  buffer space   230000 words

 SETTING BASIS          =    CC-PVDZ


 Recomputing integrals since basis changed


 Using spherical harmonics

 Library entry C      S cc-pVDZ              selected for orbital group  1
 Library entry C      P cc-pVDZ              selected for orbital group  1
 Library entry C      D cc-pVDZ              selected for orbital group  1
 Library entry O      S cc-pVDZ              selected for orbital group  2
 Library entry O      P cc-pVDZ              selected for orbital group  2
 Library entry O      D cc-pVDZ              selected for orbital group  2
 Library entry H      S cc-pVDZ              selected for orbital group  3
 Library entry H      P cc-pVDZ              selected for orbital group  3

1PROGRAM * SEWARD (Integral evaluation for generally contracted gaussian basis sets)     Author: Roland Lindh, 1990

 Geometry written to block  1 of record 700


 Point group  C1  



 ATOMIC COORDINATES

 NR  ATOM    CHARGE       X              Y              Z

   1  C       6.00    3.357976046    1.344348918   -0.089443368
   2  C       6.00    0.929389944   -0.113370094   -0.371319661
   3  C       6.00    0.851005696   -2.903174955    0.191651343
   4  O       8.00   -1.059697462    1.374274865    0.480848305
   5  O       8.00   -3.473014908    0.174363212   -0.227772083
   6  H       1.00    4.885647037    0.399612664   -1.155455816
   7  H       1.00    3.137751146    3.293580974   -0.806029364
   8  H       1.00    3.959209599    1.462738916    1.923080562
   9  H       1.00   -0.949960153   -3.742490363   -0.415470497
  10  H       1.00    2.420593451   -3.870732177   -0.788539611
  11  H       1.00    1.060509137   -3.249889043    2.257645781
  12  H       1.00   -3.758026970    1.039721789   -1.827467612

 Bond lengths in Bohr (Angstrom)

 1-2  2.846476668  1-6  2.088704811  1-7  2.088420481  1-8  2.103746788  2-3  2.847119878
     ( 1.506290578)     ( 1.105294982)     ( 1.105144521)     ( 1.113254854)     ( 1.506630951)

  2- 4  2.625975338   3- 9  2.077624911   3-10  2.088192281   3-11  2.105334978   4- 5  2.786760112
       ( 1.389606300)       ( 1.099431752)       ( 1.105023763)       ( 1.114095288)       ( 1.474689938)

  5-12  1.840951691
       ( 0.974189678)

 Bond angles

  1-2-3  120.37866573   1-2-4  108.90555081   2-1-6  109.98947225   2-1-7  110.73429490

  2- 1- 8  111.55454090   2- 3- 9  111.21873135   2- 3-10  109.90795117   2- 3-11  110.65054919

  2- 4- 5  109.23946113   3- 2- 4  118.03986083   4- 5-12   98.77949786   6- 1- 7  108.91518355

  6- 1- 8  107.73808609   7- 1- 8  107.80970783   9- 3-10  109.09950402   9- 3-11  107.84782292

 10- 3-11  108.03048170

 NUCLEAR CHARGE:                   41
 NUMBER OF PRIMITIVE AOS:         184
 NUMBER OF SYMMETRY AOS:          179
 NUMBER OF CONTRACTIONS:          105   ( 105A   )
 NUMBER OF CORE ORBITALS:           5   (   5A   )
 NUMBER OF VALENCE ORBITALS:       27   (  27A   )


 NUCLEAR REPULSION ENERGY  183.23489493


 Eigenvalues of metric

         1 0.345E-02 0.435E-02 0.105E-01 0.141E-01 0.182E-01 0.214E-01 0.331E-01 0.345E-01


 Contracted 2-electron integrals neglected if value below      1.0D-16
 AO integral compression algorithm  1   Integral accuracy      1.0D-16

     127.402 MB (compressed) written to integral file ( 93.4%)

     Node minimum: 34.341 MB, node maximum: 55.575 MB


 NUMBER OF SORTED TWO-ELECTRON INTEGRALS:    5164320.     BUFFER LENGTH:  32768
 NUMBER OF SEGMENTS:   1  SEGMENT LENGTH:    5164320      RECORD LENGTH: 524288

 Memory used in sort:       5.72 MW

 SORT1 READ    17075548. AND WROTE     5135907. INTEGRALS IN     15 RECORDS. CPU TIME:     0.34 SEC, REAL TIME:     0.40 SEC
 SORT2 READ    15396641. AND WROTE    15487395. INTEGRALS IN    393 RECORDS. CPU TIME:     0.11 SEC, REAL TIME:     0.16 SEC

 Node minimum:     5160610.  Node maximum:     5164320. integrals

 OPERATOR DM      FOR CENTER  0  COORDINATES:    0.000000    0.000000    0.000000


 **********************************************************************************************************************************
 DATASETS  * FILE   NREC   LENGTH (MB)   RECORD NAMES
              1      18        3.17       500      610      700      900      950      970     1000      129      960     1100   
                                          VAR    BASINP    GEOM    SYMINP    ZMAT    AOBASIS   BASIS     P2S    ABASIS      S 
                                         1400     1410     1200     1210     1080     1600     1650     1700   
                                           T        V       H0       H01     AOSYM     SMH    MOLCAS    OPER   

 PROGRAMS   *        TOTAL       INT
 CPU TIMES  *         1.57      1.46
 REAL TIME  *         2.12 SEC
 DISK USED  *       317.28 MB      
 GA USED    *         0.00 MB       (max)       0.00 MB       (current)
 **********************************************************************************************************************************

1PROGRAM * RHF-SCF (OPEN SHELL)       Authors: W. Meyer, H.-J. Werner


 NUMBER OF ELECTRONS:      21+   20-    SPACE SYMMETRY=1    SPIN SYMMETRY: Doublet 
 CONVERGENCE THRESHOLDS:    1.00E-10 (Density)    1.00E-11 (Energy)
 MAX. NUMBER OF ITERATIONS:      200
 INTERPOLATION TYPE:            DIIS
 INTERPOLATION STEPS:              2 (START)      1 (STEP)
 LEVEL SHIFTS:                 -0.30 (CLOSED)  0.00 (OPEN) 



 Orbital guess generated from atomic densities. Full valence occupancy:   32

 Molecular orbital dump at record        2100.2

 ITERATION    DDIFF          GRAD             ENERGY        2-EL.EN.            DIPOLE MOMENTS         DIIS
    1      0.000D+00      0.000D+00      -267.17826941    555.841166    0.57096    0.04975   -0.74918    0
    2      0.000D+00      0.617D-02      -267.24899021    555.762273    0.41392   -0.13165   -0.59886    1
    3      0.928D-02      0.214D-02      -267.26117113    555.679953    0.39337   -0.05982   -0.62630    2
    4      0.336D-02      0.912D-03      -267.26478143    555.832311    0.37858   -0.10008   -0.64276    3
    5      0.186D-02      0.364D-03      -267.26535090    555.803700    0.38104   -0.09364   -0.63575    4
    6      0.793D-03      0.110D-03      -267.26542737    555.789939    0.37928   -0.09346   -0.63850    5
    7      0.277D-03      0.511D-04      -267.26544753    555.786938    0.37856   -0.09321   -0.63800    6
    8      0.144D-03      0.273D-04      -267.26545359    555.784993    0.37883   -0.09333   -0.63821    7
    9      0.924D-04      0.115D-04      -267.26545451    555.785305    0.37902   -0.09329   -0.63797    8
   10      0.366D-04      0.501D-05      -267.26545467    555.785918    0.37928   -0.09330   -0.63803    9
   11      0.147D-04      0.197D-05      -267.26545469    555.785759    0.37933   -0.09329   -0.63804    9
   12      0.651D-05      0.671D-06      -267.26545469    555.785894    0.37935   -0.09329   -0.63803    9
   13      0.227D-05      0.226D-06      -267.26545469    555.785809    0.37935   -0.09329   -0.63803    9
   14      0.632D-06      0.758D-07      -267.26545469    555.785818    0.37935   -0.09330   -0.63803    9
   15      0.193D-06      0.300D-07      -267.26545469    555.785814    0.37935   -0.09330   -0.63803    9
   16      0.824D-07      0.145D-07      -267.26545469    555.785815    0.37935   -0.09330   -0.63803    9
   17      0.374D-07      0.750D-08      -267.26545469    555.785815    0.37935   -0.09330   -0.63803    9
   18      0.222D-07      0.342D-08      -267.26545469    555.785816    0.37935   -0.09330   -0.63803    9
   19      0.114D-07      0.133D-08      -267.26545469    555.785816    0.37935   -0.09330   -0.63803    9
   20      0.444D-08      0.567D-09      -267.26545469    555.785816    0.37935   -0.09330   -0.63803    9
   21      0.166D-08      0.286D-09      -267.26545469    555.785816    0.37935   -0.09330   -0.63803    9
   22      0.753D-09      0.162D-09      -267.26545469    555.785816    0.37935   -0.09330   -0.63803    9
   23      0.446D-09      0.795D-10      -267.26545469    555.785816    0.37935   -0.09330   -0.63803    9
   24      0.263D-09      0.316D-10      -267.26545469    555.785816    0.37935   -0.09330   -0.63803    9
   25      0.931D-10      0.129D-10      -267.26545469    555.785816    0.37935   -0.09330   -0.63803    0

 Final alpha occupancy:  21
 Final beta  occupancy:  20

 !RHF STATE 1.1 Energy               -267.265454694951
 Nuclear energy                       183.23489493
 One-electron energy                 -728.39325740
 Two-electron energy                  277.89290778
 Virial quotient                       -1.00153912
 !RHF STATE 1.1 Dipole moment           0.37935212    -0.09329617    -0.63803292
 Dipole moment /Debye                   0.96415377    -0.23711968    -1.62161171

 Orbital energies:

         1.1          2.1          3.1          4.1          5.1          6.1          7.1          8.1          9.1         10.1
    -20.630509   -20.628794   -11.279249   -11.237844   -11.231855    -1.470170    -1.240777    -1.023275    -0.945523    -0.768543

        11.1         12.1         13.1         14.1         15.1         16.1         17.1         18.1         19.1         20.1
     -0.704632    -0.643152    -0.626744    -0.588814    -0.545308    -0.543498    -0.539009    -0.517025    -0.493017    -0.469821

        21.1         22.1         23.1
     -0.352321     0.181352     0.183533


 **********************************************************************************************************************************
 DATASETS  * FILE   NREC   LENGTH (MB)   RECORD NAMES
              1      18        3.17       500      610      700      900      950      970     1000      129      960     1100   
                                          VAR    BASINP    GEOM    SYMINP    ZMAT    AOBASIS   BASIS     P2S    ABASIS      S 
                                         1400     1410     1200     1210     1080     1600     1650     1700   
                                           T        V       H0       H01     AOSYM     SMH    MOLCAS    OPER   

              2       3        0.77       700     1000     2100   
                                         GEOM     BASIS     RHF  

 PROGRAMS   *        TOTAL       RHF       INT
 CPU TIMES  *         3.53      1.96      1.46
 REAL TIME  *         4.25 SEC
 DISK USED  *       333.85 MB      
 SF USED    *         0.04 MB      
 GA USED    *         0.00 MB       (max)       0.00 MB       (current)
 **********************************************************************************************************************************


1PROGRAM * CCSD (Unrestricted open-shell coupled cluster)     Authors: C. Hampel, H.-J. Werner, 1991, M. Deegan, P.J. Knowles, 1992


 Convergence thresholds:  THRVAR = 1.00D-08  THRDEN = 1.00D-10

 CCSD(T)     terms to be evaluated (factor= 1.000)


 Number of core orbitals:           5 (   5 )
 Number of closed-shell orbitals:  15 (  15 )
 Number of active  orbitals:        1 (   1 )
 Number of external orbitals:      84 (  84 )

 Memory could be reduced to 24.91 Mwords without degradation in triples

 Number of N-1 electron functions:              31
 Number of N-2 electron functions:             465
 Number of singly external CSFs:              2635
 Number of doubly external CSFs:           2537250
 Total number of CSFs:                     2539885

 Molecular orbitals read from record     2100.2  Type=RHF/CANONICAL (state 1.1)

 Integral transformation finished. Total CPU:   1.59 sec, npass=  1  Memory used:  12.63 MW

 Starting RMP2 calculation

 ITER.      SQ.NORM     CORR.ENERGY   TOTAL ENERGY   ENERGY CHANGE        DEN1      VAR(S)    VAR(P)  DIIS     TIME
   1      1.24297390    -0.78632036  -268.05177505    -0.78632036    -0.00304870  0.20D-04  0.11D-02  1  1     2.08
   2      1.24561388    -0.78960813  -268.05506283    -0.00328778    -0.00000474  0.54D-06  0.19D-05  2  2     2.50
   3      1.24567939    -0.78965018  -268.05510487    -0.00004204    -0.00000003  0.16D-07  0.68D-08  3  3     2.95
   4      1.24568034    -0.78965018  -268.05510487    -0.00000000    -0.00000000  0.27D-09  0.38D-10  4  4     3.43
   5      1.24568043    -0.78965021  -268.05510491    -0.00000003    -0.00000000  0.25D-11  0.65D-12  5  5     3.94
   6      1.24568044    -0.78965022  -268.05510491    -0.00000001    -0.00000000  0.28D-13  0.87D-14  6  6     4.48
   7      1.24568044    -0.78965022  -268.05510491     0.00000000    -0.00000000  0.47D-15  0.12D-15  6  1     5.03
   8      1.24568044    -0.78965022  -268.05510491     0.00000000    -0.00000000  0.59D-17  0.13D-17  6  2     5.58

 Norm of t1 vector:      0.03892671      S-energy:    -0.00227108      T1 diagnostic:  0.00055023
 Norm of t2 vector:      0.49413070      P-energy:    -0.78737914
                                         Alpha-Beta:  -0.59336715
                                         Alpha-Alpha: -0.10093708
                                         Beta-Beta:   -0.09307491

 Spin contamination <S**2-Sz**2-Sz>     0.00104029
  Reference energy                   -267.265454694951
  RHF-RMP2 correlation energy          -0.789650218247
 !RHF-RMP2 energy                    -268.055104913198

 Starting UCCSD calculation

 ITER.      SQ.NORM     CORR.ENERGY   TOTAL ENERGY   ENERGY CHANGE        DEN1      VAR(S)    VAR(P)  DIIS     TIME
   1      1.26274302    -0.80899672  -268.07445142    -0.80899672    -0.02514952  0.38D-02  0.59D-02  1  1    15.21
   2      1.29150471    -0.83639865  -268.10185334    -0.02740193    -0.00201019  0.22D-03  0.66D-03  2  2    24.86
   3      1.30144070    -0.84089415  -268.10634884    -0.00449550    -0.00032458  0.19D-03  0.56D-04  3  3    34.45
   4      1.30635314    -0.84237077  -268.10782547    -0.00147663    -0.00007210  0.43D-04  0.14D-04  4  4    44.29
   5      1.30908402    -0.84275898  -268.10821368    -0.00038821    -0.00002368  0.19D-04  0.32D-05  5  5    53.99
   6      1.31102399    -0.84296353  -268.10841822    -0.00020454    -0.00000646  0.42D-05  0.12D-05  6  6    63.92
   7      1.31197372    -0.84302234  -268.10847704    -0.00005882    -0.00000208  0.14D-05  0.37D-06  6  2    71.41
   8      1.31241553    -0.84306503  -268.10851973    -0.00004269    -0.00000065  0.45D-06  0.11D-06  6  1    78.31
   9      1.31260088    -0.84306962  -268.10852431    -0.00000458    -0.00000022  0.15D-06  0.35D-07  6  4    85.19
  10      1.31266406    -0.84307254  -268.10852723    -0.00000292    -0.00000005  0.35D-07  0.95D-08  6  3    92.04
  11      1.31269357    -0.84307128  -268.10852598     0.00000125    -0.00000002  0.13D-07  0.28D-08  6  5    98.90
  12      1.31270396    -0.84307103  -268.10852572     0.00000026    -0.00000000  0.26D-08  0.95D-09  6  6   108.90
  13      1.31270282    -0.84307011  -268.10852481     0.00000091    -0.00000000  0.96D-09  0.28D-09  6  2   118.85
  14      1.31269761    -0.84306927  -268.10852396     0.00000084    -0.00000000  0.21D-09  0.67D-10  6  1   128.81
  15      1.31269353    -0.84306868  -268.10852338     0.00000059    -0.00000000  0.78D-10  0.19D-10  6  4   138.77
  16      1.31269035    -0.84306830  -268.10852299     0.00000038    -0.00000000  0.28D-10  0.63D-11  6  3   148.73
  17      1.31268815    -0.84306806  -268.10852275     0.00000024    -0.00000000  0.10D-10  0.24D-11  6  5   158.70
  18      1.31268724    -0.84306800  -268.10852269     0.00000006    -0.00000000  0.41D-11  0.87D-12  6  6   168.42
  19      1.31268663    -0.84306796  -268.10852266     0.00000003    -0.00000000  0.16D-11  0.37D-12  6  2   178.29
  20      1.31268631    -0.84306795  -268.10852265     0.00000001    -0.00000000  0.60D-12  0.13D-12  6  1   188.25
  21      1.31268615    -0.84306794  -268.10852264     0.00000001    -0.00000000  0.28D-12  0.58D-13  6  4   198.00
  22      1.31268603    -0.84306793  -268.10852263     0.00000001    -0.00000000  0.74D-13  0.21D-13  6  3   207.78
  23      1.31268597    -0.84306793  -268.10852263     0.00000000    -0.00000000  0.21D-13  0.63D-14  6  5   217.73
  24      1.31268596    -0.84306793  -268.10852263    -0.00000000    -0.00000000  0.67D-14  0.23D-14  6  6   227.68
  25      1.31268597    -0.84306793  -268.10852263    -0.00000000    -0.00000000  0.21D-14  0.52D-15  6  2   237.64
  26      1.31268597    -0.84306793  -268.10852263    -0.00000000    -0.00000000  0.77D-15  0.15D-15  6  1   247.35
  27      1.31268598    -0.84306793  -268.10852263    -0.00000000    -0.00000000  0.20D-15  0.63D-16  6  3   257.30
  28      1.31268599    -0.84306793  -268.10852263    -0.00000000    -0.00000000  0.30D-16  0.11D-16  6  4   267.34
  29      1.31268599    -0.84306793  -268.10852263    -0.00000000    -0.00000000  0.71D-17  0.29D-17  6  5   277.30
  30      1.31268599    -0.84306793  -268.10852263    -0.00000000    -0.00000000  0.15D-17  0.54D-18  6  6   287.02
  31      1.31268599    -0.84306793  -268.10852263    -0.00000000    -0.00000000  0.35D-18  0.10D-18  6  2   296.80

 Norm of t1 vector:      0.13871740      S-energy:    -0.00282068      T1 diagnostic:  0.01616930
                                                                       D1 diagnostic:  0.06281582
 Norm of t2 vector:      0.54170423      P-energy:    -0.84024726
                                         Alpha-Beta:  -0.66480279
                                         Alpha-Alpha: -0.09147419
                                         Beta-Beta:   -0.08397028

 Spin contamination <S**2-Sz**2-Sz>     0.00217281

 Memory could be reduced to 28.85 Mwords without degradation in triples
 

 RESULTS
 =======

  Reference energy                   -267.265454694951
  UCCSD singles energy                 -0.002820675812
  UCCSD pair energy                    -0.840247258913
  UCCSD correlation energy             -0.843067934725
  Triples (T) contribution             -0.024969497876
  Total correlation energy             -0.868037432600
 
  RHF-UCCSD energy                   -268.108522629676
  RHF-UCCSD[T] energy                -268.134827595919
  RHF-UCCSD-T energy                 -268.133070841054
 !RHF-UCCSD(T) energy                -268.133492127552

 Program statistics:

 Available memory in ccsd:               999997692
 Min. memory needed in ccsd:               7337057
 Max. memory used in ccsd:                10523002
 Max. memory used in cckext:              10867977 (31 integral passes)
 Max. memory used in cckint:              12633073 ( 1 integral passes)



 **********************************************************************************************************************************
 DATASETS  * FILE   NREC   LENGTH (MB)   RECORD NAMES
              1      18        3.17       500      610      700      900      950      970     1000      129      960     1100   
                                          VAR    BASINP    GEOM    SYMINP    ZMAT    AOBASIS   BASIS     P2S    ABASIS      S 
                                         1400     1410     1200     1210     1080     1600     1650     1700   
                                           T        V       H0       H01     AOSYM     SMH    MOLCAS    OPER   

              2       3        0.77       700     1000     2100   
                                         GEOM     BASIS     RHF  

 PROGRAMS   *        TOTAL  UCCSD(T)       RHF       INT
 CPU TIMES  *       378.55    375.02      1.96      1.46
 REAL TIME  *       393.39 SEC
 DISK USED  *         1.30 GB      
 SF USED    *       553.73 MB      
 GA USED    *         0.00 MB       (max)       0.00 MB       (current)
 **********************************************************************************************************************************

        UCCSD(T)        RHF-SCF 
   -268.13349213   -267.26545469
 **********************************************************************************************************************************
 Variable memory released
