
 Primary working directories    : /tmp/320938.161.gen6.q
 Secondary working directories  : /tmp/320938.161.gen6.q
 Wavefunction directory         : /home/vulcan/mel64643/wfu/
 Main file repository           : /tmp/320938.161.gen6.q/

 ARCHNAME  : Linux/x86_64
 FC        : /opt/intel/compilers_and_libraries_2016.1.150/linux/bin/intel64/ifort
 FCVERSION : 16.0.1
 BLASLIB   : -mkl
 id        : ccgc

 Nodes     nprocs
 n080         3
 Number of processes for MPI-2 version of Molpro:   nprocs(total)=    4   nprocs(compute)=    3   nprocs(helper)=    1
 ga_uses_ma=false, calling ma_init with nominal heap.
 GA-space will be limited to   8.0 MW (determined by -G option)

 Using customized tuning parameters: mindgm=10; mindgv=16; mindgc=4; mindgr=1; noblas=0; mincuda=1000; minvec=7
 default implementation of scratch files=sf  

 ***,Frequencies for min3
 memory,1000,m
 gthresh,energy=1.0d-10,orbital=1.0d-10,oneint=1.0d-16,twoint=1.0d-16,optgrad=1.0d-6,compress=1.0d-13
 geomtyp=xyz
 
  geometry = {
  12
  arbitrary comment
     C    1.776964391707    0.711398808326   -0.047331391796
     C    0.491811976407   -0.059992870174   -0.196493901896
     C    0.450332819107   -1.536294019674    0.101417522804
     O   -0.560284883875    0.727256917297    0.254474644921
     O   -1.838186860238    0.092180286674   -0.120586021726
     H    2.587444202522    0.211891667182   -0.611396835646
     H    1.659392587309    1.743174233007   -0.426405773095
     H    2.094271486976    0.774344696779    1.017729222478
     H   -0.505364016266   -1.982808363883   -0.220027752976
     H    1.281404636069   -2.046973194671   -0.417157071854
     H    0.561295672684   -1.719099100716    1.194778266653
     H   -1.988924727555    0.550617775667   -0.966804735016
  }
 
 basis=cc-pvdz
 {rhf;maxit,200}
 {uccsd(t);maxit,200}

 Variables initialized (661), CPU time= 0.00 sec
 Commands  initialized (458), CPU time= 0.01 sec, 486 directives.
 Default parameters read. Elapsed time= 0.06 sec

 Checking input...
 Passed
1


                                         ***  PROGRAM SYSTEM MOLPRO  ***
                         Copyright, University College Cardiff Consultants Limited, 2008

                                    Version 2010.1 linked May 16 2016 07:17:05


 **********************************************************************************************************************************
 LABEL *   Frequencies for min3                                                          
 Linux-4.4.3/n080(x86_64) 64 bit mpp version                                             DATE: 07-Mar-20          TIME: 01:53:49  
 **********************************************************************************************************************************

 SHA1:             9e8077add272b0f3cad6f7df79ec5211205f459d
 **********************************************************************************************************************************

 THRESHOLDS:

 ZERO    =  1.00D-12  ONEINT  =  1.00D-16  TWOINT  =  1.00D-16  PREFAC  =  1.00D-14  LOCALI  =  1.00D-09  EORDER  =  1.00D-04
 ENERGY  =  1.00D-10  ETEST   =  0.00D+00  EDENS   =  0.00D+00  THRDEDEF=  1.00D-06  GRADIENT=  1.00D-02  STEP    =  1.00D-03
 ORBITAL =  1.00D-10  CIVEC   =  1.00D-05  COEFF   =  1.00D-04  PRINTCI =  5.00D-02  PUNCHCI =  9.90D+01  OPTGRAD =  1.00D-06
 OPTENERG=  1.00D-06  OPTSTEP =  3.00D-04  THRGRAD =  1.00D-10  COMPRESS=  1.00D-13  VARMIN  =  1.00D-07  VARMAX  =  1.00D-03
 THRDOUB =  0.00D+00  THRDIV  =  1.00D-05  THRRED  =  1.00D-07  THRPSP  =  1.00D+00  THRDC   =  1.00D-10  THRCS   =  1.00D-10
 THRNRM  =  1.00D-08  THREQ   =  0.00D+00  THRDE   =  1.00D+00  THRREF  =  1.00D-05  SPARFAC =  1.00D+00  THRDLP  =  1.00D-07
 THRDIA  =  1.00D-10  THRDLS  =  1.00D-07  THRGPS  =  0.00D+00  THRKEX  =  0.00D+00  THRDIS  =  2.00D-01  THRVAR  =  1.00D-10
 THRLOC  =  1.00D-06  THRGAP  =  1.00D-06  THRLOCT = -1.00D+00  THRGAPT = -1.00D+00  THRORB  =  1.00D-06  THRMLTP =  0.00D+00
 THRCPQCI=  1.00D-10  KEXTA   =  0.00D+00  THRCOARS=  0.00D+00  SYMTOL  =  1.00D-06  GRADTOL =  1.00D-06  THROVL  =  1.00D-08
 THRORTH =  1.00D-08  GRID    =  1.00D-06  GRIDMAX =  1.00D-03  DTMAX   =  0.00D+00

 SETTING GEOMTYP        =    XYZ

 Variable memory set to 1000000000 words,  buffer space   230000 words

 SETTING BASIS          =    CC-PVDZ


 Recomputing integrals since basis changed


 Using spherical harmonics

 Library entry C      S cc-pVDZ              selected for orbital group  1
 Library entry C      P cc-pVDZ              selected for orbital group  1
 Library entry C      D cc-pVDZ              selected for orbital group  1
 Library entry O      S cc-pVDZ              selected for orbital group  2
 Library entry O      P cc-pVDZ              selected for orbital group  2
 Library entry O      D cc-pVDZ              selected for orbital group  2
 Library entry H      S cc-pVDZ              selected for orbital group  3
 Library entry H      P cc-pVDZ              selected for orbital group  3

1PROGRAM * SEWARD (Integral evaluation for generally contracted gaussian basis sets)     Author: Roland Lindh, 1990

 Geometry written to block  1 of record 700


 Point group  C1  



 ATOMIC COORDINATES

 NR  ATOM    CHARGE       X              Y              Z

   1  C       6.00    3.357976046    1.344348918   -0.089443368
   2  C       6.00    0.929389944   -0.113370094   -0.371319661
   3  C       6.00    0.851005696   -2.903174955    0.191651343
   4  O       8.00   -1.058784986    1.374316401    0.480887386
   5  O       8.00   -3.473669744    0.174195497   -0.227874556
   6  H       1.00    4.889560923    0.400417221   -1.155372577
   7  H       1.00    3.135797535    3.294121900   -0.805790132
   8  H       1.00    3.957599555    1.463299408    1.923229506
   9  H       1.00   -0.954999587   -3.746964779   -0.415792194
  10  H       1.00    2.421503826   -3.868218736   -0.788312620
  11  H       1.00    1.060695100   -3.248626493    2.257803712
  12  H       1.00   -3.758523031    1.040516799   -1.826996172

 Bond lengths in Bohr (Angstrom)

 1-2  2.846476668  1-6  2.091163400  1-7  2.089050181  1-8  2.103461355  2-3  2.847119878
     ( 1.506290578)     ( 1.106596012)     ( 1.105477744)     ( 1.113103809)     ( 1.506630951)

  2- 4  2.625320459   3- 9  2.083896351   3-10  2.087607062   3-11  2.105300934   4- 5  2.788243546
       ( 1.389259753)       ( 1.102750455)       ( 1.104714078)       ( 1.114077272)       ( 1.475474938)

  5-12  1.840881293
       ( 0.974152425)

 Bond angles

  1-2-3  120.37866573   1-2-4  108.89190688   2-1-6  110.07460280   2-1-7  110.68770196

  2- 1- 8  111.52622251   2- 3- 9  111.28332735   2- 3-10  109.84246955   2- 3-11  110.61568131

  2- 4- 5  109.23716140   3- 2- 4  118.04890977   4- 5-12   98.75871144   6- 1- 7  108.92932159

  6- 1- 8  107.72637803   7- 1- 8  107.79686804   9- 3-10  109.14525377   9- 3-11  107.81546297

 10- 3-11  108.05373821

 NUCLEAR CHARGE:                   41
 NUMBER OF PRIMITIVE AOS:         184
 NUMBER OF SYMMETRY AOS:          179
 NUMBER OF CONTRACTIONS:          105   ( 105A   )
 NUMBER OF CORE ORBITALS:           5   (   5A   )
 NUMBER OF VALENCE ORBITALS:       27   (  27A   )


 NUCLEAR REPULSION ENERGY  183.21020779


 Eigenvalues of metric

         1 0.345E-02 0.435E-02 0.105E-01 0.141E-01 0.182E-01 0.214E-01 0.331E-01 0.345E-01


 Contracted 2-electron integrals neglected if value below      1.0D-16
 AO integral compression algorithm  1   Integral accuracy      1.0D-16

     127.664 MB (compressed) written to integral file ( 93.2%)

     Node minimum: 34.603 MB, node maximum: 56.885 MB


 NUMBER OF SORTED TWO-ELECTRON INTEGRALS:    5164320.     BUFFER LENGTH:  32768
 NUMBER OF SEGMENTS:   1  SEGMENT LENGTH:    5164320      RECORD LENGTH: 524288

 Memory used in sort:       5.72 MW

 SORT1 READ    17075251. AND WROTE     5135807. INTEGRALS IN     15 RECORDS. CPU TIME:     0.30 SEC, REAL TIME:     0.34 SEC
 SORT2 READ    15396329. AND WROTE    15487395. INTEGRALS IN    396 RECORDS. CPU TIME:     0.09 SEC, REAL TIME:     0.13 SEC

 Node minimum:     5160610.  Node maximum:     5164320. integrals

 OPERATOR DM      FOR CENTER  0  COORDINATES:    0.000000    0.000000    0.000000


 **********************************************************************************************************************************
 DATASETS  * FILE   NREC   LENGTH (MB)   RECORD NAMES
              1      18        3.17       500      610      700      900      950      970     1000      129      960     1100   
                                          VAR    BASINP    GEOM    SYMINP    ZMAT    AOBASIS   BASIS     P2S    ABASIS      S 
                                         1400     1410     1200     1210     1080     1600     1650     1700   
                                           T        V       H0       H01     AOSYM     SMH    MOLCAS    OPER   

 PROGRAMS   *        TOTAL       INT
 CPU TIMES  *         1.19      1.12
 REAL TIME  *         1.51 SEC
 DISK USED  *       318.28 MB      
 GA USED    *         0.00 MB       (max)       0.00 MB       (current)
 **********************************************************************************************************************************

1PROGRAM * RHF-SCF (OPEN SHELL)       Authors: W. Meyer, H.-J. Werner


 NUMBER OF ELECTRONS:      21+   20-    SPACE SYMMETRY=1    SPIN SYMMETRY: Doublet 
 CONVERGENCE THRESHOLDS:    1.00E-10 (Density)    1.00E-11 (Energy)
 MAX. NUMBER OF ITERATIONS:      200
 INTERPOLATION TYPE:            DIIS
 INTERPOLATION STEPS:              2 (START)      1 (STEP)
 LEVEL SHIFTS:                 -0.30 (CLOSED)  0.00 (OPEN) 



 Orbital guess generated from atomic densities. Full valence occupancy:   32

 Molecular orbital dump at record        2100.2

 ITERATION    DDIFF          GRAD             ENERGY        2-EL.EN.            DIPOLE MOMENTS         DIIS
    1      0.000D+00      0.000D+00      -267.17807625    555.798501    0.57316    0.04961   -0.74950    0
    2      0.000D+00      0.617D-02      -267.24877583    555.714237    0.41385   -0.13083   -0.59799    1
    3      0.928D-02      0.214D-02      -267.26099115    555.633745    0.39352   -0.05880   -0.62560    2
    4      0.337D-02      0.913D-03      -267.26462474    555.785668    0.37842   -0.09898   -0.64201    3
    5      0.186D-02      0.364D-03      -267.26520066    555.757010    0.38086   -0.09252   -0.63502    4
    6      0.795D-03      0.111D-03      -267.26527863    555.743375    0.37908   -0.09234   -0.63780    5
    7      0.279D-03      0.516D-04      -267.26529929    555.740313    0.37833   -0.09208   -0.63730    6
    8      0.145D-03      0.276D-04      -267.26530549    555.738394    0.37859   -0.09220   -0.63753    7
    9      0.936D-04      0.116D-04      -267.26530643    555.738700    0.37877   -0.09216   -0.63729    8
   10      0.369D-04      0.507D-05      -267.26530659    555.739321    0.37903   -0.09217   -0.63735    9
   11      0.148D-04      0.198D-05      -267.26530662    555.739159    0.37908   -0.09217   -0.63736    9
   12      0.658D-05      0.677D-06      -267.26530662    555.739294    0.37910   -0.09217   -0.63735    9
   13      0.229D-05      0.229D-06      -267.26530662    555.739208    0.37911   -0.09217   -0.63735    9
   14      0.636D-06      0.768D-07      -267.26530662    555.739218    0.37911   -0.09217   -0.63735    9
   15      0.195D-06      0.306D-07      -267.26530662    555.739213    0.37911   -0.09217   -0.63735    9
   16      0.839D-07      0.148D-07      -267.26530662    555.739215    0.37911   -0.09217   -0.63735    9
   17      0.383D-07      0.766D-08      -267.26530662    555.739215    0.37911   -0.09217   -0.63735    9
   18      0.228D-07      0.347D-08      -267.26530662    555.739215    0.37911   -0.09217   -0.63735    9
   19      0.116D-07      0.135D-08      -267.26530662    555.739215    0.37911   -0.09217   -0.63735    9
   20      0.450D-08      0.581D-09      -267.26530662    555.739215    0.37911   -0.09217   -0.63735    9
   21      0.170D-08      0.294D-09      -267.26530662    555.739215    0.37911   -0.09217   -0.63735    9
   22      0.777D-09      0.166D-09      -267.26530662    555.739215    0.37911   -0.09217   -0.63735    9
   23      0.457D-09      0.816D-10      -267.26530662    555.739215    0.37911   -0.09217   -0.63735    9
   24      0.270D-09      0.326D-10      -267.26530662    555.739215    0.37911   -0.09217   -0.63735    9
   25      0.959D-10      0.133D-10      -267.26530662    555.739215    0.37911   -0.09217   -0.63735    0

 Final alpha occupancy:  21
 Final beta  occupancy:  20

 !RHF STATE 1.1 Energy               -267.265306622678
 Nuclear energy                       183.21020779
 One-electron energy                 -728.34512200
 Two-electron energy                  277.86960759
 Virial quotient                       -1.00156402
 !RHF STATE 1.1 Dipole moment           0.37910926    -0.09217149    -0.63734922
 Dipole moment /Debye                   0.96353652    -0.23426122    -1.61987402

 Orbital energies:

         1.1          2.1          3.1          4.1          5.1          6.1          7.1          8.1          9.1         10.1
    -20.630590   -20.628878   -11.279243   -11.238036   -11.232152    -1.469951    -1.241018    -1.023146    -0.945265    -0.768411

        11.1         12.1         13.1         14.1         15.1         16.1         17.1         18.1         19.1         20.1
     -0.704554    -0.642929    -0.626642    -0.588894    -0.545005    -0.543358    -0.538910    -0.516916    -0.493169    -0.469773

        21.1         22.1         23.1
     -0.352225     0.181266     0.183337


 **********************************************************************************************************************************
 DATASETS  * FILE   NREC   LENGTH (MB)   RECORD NAMES
              1      18        3.17       500      610      700      900      950      970     1000      129      960     1100   
                                          VAR    BASINP    GEOM    SYMINP    ZMAT    AOBASIS   BASIS     P2S    ABASIS      S 
                                         1400     1410     1200     1210     1080     1600     1650     1700   
                                           T        V       H0       H01     AOSYM     SMH    MOLCAS    OPER   

              2       3        0.77       700     1000     2100   
                                         GEOM     BASIS     RHF  

 PROGRAMS   *        TOTAL       RHF       INT
 CPU TIMES  *         2.55      1.36      1.12
 REAL TIME  *         2.98 SEC
 DISK USED  *       334.85 MB      
 SF USED    *         0.04 MB      
 GA USED    *         0.00 MB       (max)       0.00 MB       (current)
 **********************************************************************************************************************************


1PROGRAM * CCSD (Unrestricted open-shell coupled cluster)     Authors: C. Hampel, H.-J. Werner, 1991, M. Deegan, P.J. Knowles, 1992


 Convergence thresholds:  THRVAR = 1.00D-08  THRDEN = 1.00D-10

 CCSD(T)     terms to be evaluated (factor= 1.000)


 Number of core orbitals:           5 (   5 )
 Number of closed-shell orbitals:  15 (  15 )
 Number of active  orbitals:        1 (   1 )
 Number of external orbitals:      84 (  84 )

 Memory could be reduced to 24.91 Mwords without degradation in triples

 Number of N-1 electron functions:              31
 Number of N-2 electron functions:             465
 Number of singly external CSFs:              2635
 Number of doubly external CSFs:           2537250
 Total number of CSFs:                     2539885

 Molecular orbitals read from record     2100.2  Type=RHF/CANONICAL (state 1.1)

 Integral transformation finished. Total CPU:   0.93 sec, npass=  1  Memory used:  12.63 MW

 Starting RMP2 calculation

 ITER.      SQ.NORM     CORR.ENERGY   TOTAL ENERGY   ENERGY CHANGE        DEN1      VAR(S)    VAR(P)  DIIS     TIME
   1      1.24310041    -0.78644144  -268.05174806    -0.78644144    -0.00305123  0.20D-04  0.11D-02  1  1     1.24
   2      1.24574409    -0.78973204  -268.05503866    -0.00329060    -0.00000475  0.54D-06  0.19D-05  2  2     1.52
   3      1.24580975    -0.78977416  -268.05508078    -0.00004212    -0.00000003  0.16D-07  0.68D-08  3  3     1.83
   4      1.24581071    -0.78977416  -268.05508079    -0.00000000    -0.00000000  0.27D-09  0.38D-10  4  4     2.17
   5      1.24581079    -0.78977420  -268.05508082    -0.00000003    -0.00000000  0.25D-11  0.65D-12  5  5     2.54
   6      1.24581080    -0.78977420  -268.05508082    -0.00000001    -0.00000000  0.28D-13  0.87D-14  6  6     2.94
   7      1.24581080    -0.78977420  -268.05508082     0.00000000    -0.00000000  0.47D-15  0.12D-15  6  1     3.34
   8      1.24581080    -0.78977420  -268.05508082     0.00000000    -0.00000000  0.60D-17  0.13D-17  6  2     3.73

 Norm of t1 vector:      0.03893573      S-energy:    -0.00227183      T1 diagnostic:  0.00055041
 Norm of t2 vector:      0.49426188      P-energy:    -0.78750237
                                         Alpha-Beta:  -0.59347286
                                         Alpha-Alpha: -0.10094628
                                         Beta-Beta:   -0.09308323

 Spin contamination <S**2-Sz**2-Sz>     0.00104038
  Reference energy                   -267.265306622679
  RHF-RMP2 correlation energy          -0.789774202026
 !RHF-RMP2 energy                    -268.055080824706

 Starting UCCSD calculation

 ITER.      SQ.NORM     CORR.ENERGY   TOTAL ENERGY   ENERGY CHANGE        DEN1      VAR(S)    VAR(P)  DIIS     TIME
   1      1.26287075    -0.80909788  -268.07440451    -0.80909788    -0.02516750  0.38D-02  0.59D-02  1  1    10.13
   2      1.29166745    -0.83651815  -268.10182478    -0.02742027    -0.00201348  0.22D-03  0.66D-03  2  2    16.52
   3      1.30162323    -0.84102131  -268.10632793    -0.00450316    -0.00032505  0.19D-03  0.56D-04  3  3    22.86
   4      1.30654647    -0.84250052  -268.10780715    -0.00147921    -0.00007224  0.43D-04  0.14D-04  4  4    29.16
   5      1.30928265    -0.84288929  -268.10819591    -0.00038877    -0.00002376  0.19D-04  0.33D-05  5  5    35.63
   6      1.31122924    -0.84309435  -268.10840097    -0.00020506    -0.00000651  0.42D-05  0.12D-05  6  6    42.18
   7      1.31218486    -0.84315343  -268.10846005    -0.00005908    -0.00000210  0.14D-05  0.37D-06  6  2    48.59
   8      1.31263141    -0.84319643  -268.10850306    -0.00004301    -0.00000066  0.45D-06  0.11D-06  6  1    54.94
   9      1.31281969    -0.84320113  -268.10850775    -0.00000469    -0.00000022  0.16D-06  0.35D-07  6  4    60.88
  10      1.31288415    -0.84320411  -268.10851073    -0.00000298    -0.00000005  0.35D-07  0.97D-08  6  3    65.65
  11      1.31291423    -0.84320286  -268.10850948     0.00000125    -0.00000002  0.13D-07  0.28D-08  6  5    70.47
  12      1.31292485    -0.84320261  -268.10850923     0.00000025    -0.00000000  0.26D-08  0.97D-09  6  6    75.25
  13      1.31292372    -0.84320168  -268.10850831     0.00000092    -0.00000000  0.98D-09  0.29D-09  6  2    80.05
  14      1.31291849    -0.84320083  -268.10850745     0.00000085    -0.00000000  0.21D-09  0.69D-10  6  1    84.84
  15      1.31291438    -0.84320024  -268.10850686     0.00000059    -0.00000000  0.79D-10  0.19D-10  6  4    89.63
  16      1.31291117    -0.84319985  -268.10850648     0.00000039    -0.00000000  0.29D-10  0.64D-11  6  3    94.42
  17      1.31290894    -0.84319961  -268.10850624     0.00000024    -0.00000000  0.10D-10  0.24D-11  6  5    99.21
  18      1.31290802    -0.84319955  -268.10850618     0.00000006    -0.00000000  0.42D-11  0.89D-12  6  6   104.03
  19      1.31290740    -0.84319952  -268.10850614     0.00000003    -0.00000000  0.16D-11  0.38D-12  6  2   108.82
  20      1.31290707    -0.84319951  -268.10850613     0.00000001    -0.00000000  0.62D-12  0.14D-12  6  1   113.62
  21      1.31290691    -0.84319950  -268.10850612     0.00000001    -0.00000000  0.29D-12  0.60D-13  6  4   118.40
  22      1.31290678    -0.84319949  -268.10850611     0.00000001    -0.00000000  0.76D-13  0.22D-13  6  3   123.20
  23      1.31290672    -0.84319948  -268.10850611     0.00000000    -0.00000000  0.22D-13  0.64D-14  6  5   127.98
  24      1.31290672    -0.84319949  -268.10850611    -0.00000000    -0.00000000  0.69D-14  0.23D-14  6  6   132.77
  25      1.31290672    -0.84319949  -268.10850611    -0.00000000    -0.00000000  0.22D-14  0.54D-15  6  2   137.98
  26      1.31290673    -0.84319949  -268.10850611    -0.00000000    -0.00000000  0.79D-15  0.16D-15  6  1   144.31
  27      1.31290674    -0.84319949  -268.10850611    -0.00000000    -0.00000000  0.20D-15  0.65D-16  6  3   150.59
  28      1.31290674    -0.84319949  -268.10850611    -0.00000000    -0.00000000  0.31D-16  0.11D-16  6  4   156.89
  29      1.31290674    -0.84319949  -268.10850611    -0.00000000    -0.00000000  0.74D-17  0.30D-17  6  5   162.79
  30      1.31290675    -0.84319949  -268.10850611    -0.00000000    -0.00000000  0.16D-17  0.56D-18  6  6   167.57
  31      1.31290675    -0.84319949  -268.10850611    -0.00000000    -0.00000000  0.37D-18  0.11D-18  6  2   172.36

 Norm of t1 vector:      0.13883806      S-energy:    -0.00282207      T1 diagnostic:  0.01618293
                                                                       D1 diagnostic:  0.06280994
 Norm of t2 vector:      0.54187705      P-energy:    -0.84037741
                                         Alpha-Beta:  -0.66493512
                                         Alpha-Alpha: -0.09147382
                                         Beta-Beta:   -0.08396848

 Spin contamination <S**2-Sz**2-Sz>     0.00218438

 Memory could be reduced to 28.85 Mwords without degradation in triples
 

 RESULTS
 =======

  Reference energy                   -267.265306622679
  UCCSD singles energy                 -0.002822074740
  UCCSD pair energy                    -0.840377413761
  UCCSD correlation energy             -0.843199488500
  Triples (T) contribution             -0.024989753468
  Total correlation energy             -0.868189241968
 
  RHF-UCCSD energy                   -268.108506111180
  RHF-UCCSD[T] energy                -268.134832595124
  RHF-UCCSD-T energy                 -268.133074583105
 !RHF-UCCSD(T) energy                -268.133495864647

 Program statistics:

 Available memory in ccsd:               999997692
 Min. memory needed in ccsd:               7337057
 Max. memory used in ccsd:                10523002
 Max. memory used in cckext:              10867977 (31 integral passes)
 Max. memory used in cckint:              12633073 ( 1 integral passes)



 **********************************************************************************************************************************
 DATASETS  * FILE   NREC   LENGTH (MB)   RECORD NAMES
              1      18        3.17       500      610      700      900      950      970     1000      129      960     1100   
                                          VAR    BASINP    GEOM    SYMINP    ZMAT    AOBASIS   BASIS     P2S    ABASIS      S 
                                         1400     1410     1200     1210     1080     1600     1650     1700   
                                           T        V       H0       H01     AOSYM     SMH    MOLCAS    OPER   

              2       3        0.77       700     1000     2100   
                                         GEOM     BASIS     RHF  

 PROGRAMS   *        TOTAL  UCCSD(T)       RHF       INT
 CPU TIMES  *       211.40    208.84      1.36      1.12
 REAL TIME  *       220.53 SEC
 DISK USED  *         1.30 GB      
 SF USED    *       553.73 MB      
 GA USED    *         0.00 MB       (max)       0.00 MB       (current)
 **********************************************************************************************************************************

        UCCSD(T)        RHF-SCF 
   -268.13349586   -267.26530662
 **********************************************************************************************************************************
 Variable memory released
