
 Primary working directories    : /tmp/320938.132.gen4.q
 Secondary working directories  : /tmp/320938.132.gen4.q
 Wavefunction directory         : /home/vulcan/mel64643/wfu/
 Main file repository           : /tmp/320938.132.gen4.q/

 ARCHNAME  : Linux/x86_64
 FC        : /opt/intel/compilers_and_libraries_2016.1.150/linux/bin/intel64/ifort
 FCVERSION : 16.0.1
 BLASLIB   : -mkl
 id        : ccgc

 Nodes     nprocs
 n048         3
 Number of processes for MPI-2 version of Molpro:   nprocs(total)=    4   nprocs(compute)=    3   nprocs(helper)=    1
 ga_uses_ma=false, calling ma_init with nominal heap.
 GA-space will be limited to   8.0 MW (determined by -G option)

 Using customized tuning parameters: mindgm=10; mindgv=16; mindgc=4; mindgr=1; noblas=0; mincuda=1000; minvec=7
 default implementation of scratch files=sf  

 ***,Frequencies for min3
 memory,1000,m
 gthresh,energy=1.0d-10,orbital=1.0d-10,oneint=1.0d-16,twoint=1.0d-16,optgrad=1.0d-6,compress=1.0d-13
 geomtyp=xyz
 
  geometry = {
  12
  arbitrary comment
     C    1.776964391707    0.711398808326   -0.047331391796
     C    0.491811976407   -0.059992870174   -0.196493901896
     C    0.450332819107   -1.536294019674    0.101417522804
     O   -0.560767745493    0.727725457083    0.254500975190
     O   -1.837833440555    0.091971993376   -0.120547266187
     H    2.585384351352    0.210994691240   -0.611459063117
     H    1.660516529638    1.742444522398   -0.426386031352
     H    2.095169126955    0.773430297751    1.017693181438
     H   -0.504970804177   -1.983130819489   -0.220322633134
     H    1.281790446560   -2.047629858841   -0.417409797046
     H    0.562879305934   -1.720774201369    1.195526502595
     H   -1.989194777061    0.551682781054   -0.967959797829
  }
 
 basis=cc-pvdz
 {rhf;maxit,200}
 {uccsd(t);maxit,200}

 Variables initialized (661), CPU time= 0.00 sec
 Commands  initialized (458), CPU time= 0.00 sec, 486 directives.
 Default parameters read. Elapsed time= 0.05 sec

 Checking input...
 Passed
1


                                         ***  PROGRAM SYSTEM MOLPRO  ***
                         Copyright, University College Cardiff Consultants Limited, 2008

                                    Version 2010.1 linked May 16 2016 07:17:05


 **********************************************************************************************************************************
 LABEL *   Frequencies for min3                                                          
 Linux-4.4.3/n048(x86_64) 64 bit mpp version                                             DATE: 07-Mar-20          TIME: 01:43:35  
 **********************************************************************************************************************************

 SHA1:             9e8077add272b0f3cad6f7df79ec5211205f459d
 **********************************************************************************************************************************

 THRESHOLDS:

 ZERO    =  1.00D-12  ONEINT  =  1.00D-16  TWOINT  =  1.00D-16  PREFAC  =  1.00D-14  LOCALI  =  1.00D-09  EORDER  =  1.00D-04
 ENERGY  =  1.00D-10  ETEST   =  0.00D+00  EDENS   =  0.00D+00  THRDEDEF=  1.00D-06  GRADIENT=  1.00D-02  STEP    =  1.00D-03
 ORBITAL =  1.00D-10  CIVEC   =  1.00D-05  COEFF   =  1.00D-04  PRINTCI =  5.00D-02  PUNCHCI =  9.90D+01  OPTGRAD =  1.00D-06
 OPTENERG=  1.00D-06  OPTSTEP =  3.00D-04  THRGRAD =  1.00D-10  COMPRESS=  1.00D-13  VARMIN  =  1.00D-07  VARMAX  =  1.00D-03
 THRDOUB =  0.00D+00  THRDIV  =  1.00D-05  THRRED  =  1.00D-07  THRPSP  =  1.00D+00  THRDC   =  1.00D-10  THRCS   =  1.00D-10
 THRNRM  =  1.00D-08  THREQ   =  0.00D+00  THRDE   =  1.00D+00  THRREF  =  1.00D-05  SPARFAC =  1.00D+00  THRDLP  =  1.00D-07
 THRDIA  =  1.00D-10  THRDLS  =  1.00D-07  THRGPS  =  0.00D+00  THRKEX  =  0.00D+00  THRDIS  =  2.00D-01  THRVAR  =  1.00D-10
 THRLOC  =  1.00D-06  THRGAP  =  1.00D-06  THRLOCT = -1.00D+00  THRGAPT = -1.00D+00  THRORB  =  1.00D-06  THRMLTP =  0.00D+00
 THRCPQCI=  1.00D-10  KEXTA   =  0.00D+00  THRCOARS=  0.00D+00  SYMTOL  =  1.00D-06  GRADTOL =  1.00D-06  THROVL  =  1.00D-08
 THRORTH =  1.00D-08  GRID    =  1.00D-06  GRIDMAX =  1.00D-03  DTMAX   =  0.00D+00

 SETTING GEOMTYP        =    XYZ

 Variable memory set to 1000000000 words,  buffer space   230000 words

 SETTING BASIS          =    CC-PVDZ


 Recomputing integrals since basis changed


 Using spherical harmonics

 Library entry C      S cc-pVDZ              selected for orbital group  1
 Library entry C      P cc-pVDZ              selected for orbital group  1
 Library entry C      D cc-pVDZ              selected for orbital group  1
 Library entry O      S cc-pVDZ              selected for orbital group  2
 Library entry O      P cc-pVDZ              selected for orbital group  2
 Library entry O      D cc-pVDZ              selected for orbital group  2
 Library entry H      S cc-pVDZ              selected for orbital group  3
 Library entry H      P cc-pVDZ              selected for orbital group  3

1PROGRAM * SEWARD (Integral evaluation for generally contracted gaussian basis sets)     Author: Roland Lindh, 1990

 Geometry written to block  1 of record 700


 Point group  C1  



 ATOMIC COORDINATES

 NR  ATOM    CHARGE       X              Y              Z

   1  C       6.00    3.357976046    1.344348918   -0.089443368
   2  C       6.00    0.929389944   -0.113370094   -0.371319661
   3  C       6.00    0.851005696   -2.903174955    0.191651343
   4  O       8.00   -1.059697462    1.375201813    0.480937143
   5  O       8.00   -3.473001878    0.173801879   -0.227801319
   6  H       1.00    4.885668369    0.398722182   -1.155490170
   7  H       1.00    3.137921478    3.292742947   -0.805752826
   8  H       1.00    3.959295849    1.461571444    1.923161399
   9  H       1.00   -0.954256524   -3.747574132   -0.416349437
  10  H       1.00    2.422232902   -3.869459652   -0.788790201
  11  H       1.00    1.063687733   -3.251791975    2.259217673
  12  H       1.00   -3.759033351    1.042529368   -1.829178924

 Bond lengths in Bohr (Angstrom)

 1-2  2.846476668  1-6  2.089140862  1-7  2.087525459  1-8  2.103783395  2-3  2.847119878
     ( 1.506290578)     ( 1.105525731)     ( 1.104670896)     ( 1.113274225)     ( 1.506630951)

  2- 4  2.626529401   3- 9  2.083661826   3-10  2.088953487   3-11  2.107509906   4- 5  2.787419992
       ( 1.389899498)       ( 1.102626349)       ( 1.105426576)       ( 1.115246210)       ( 1.475039132)

  5-12  1.844156091
       ( 0.975885373)

 Bond angles

  1-2-3  120.37866573   1-2-4  108.89026347   2-1-6  109.97224627   2-1-7  110.73606790

  2- 1- 8  111.53902982   2- 3- 9  111.29960531   2- 3-10  109.86126097   2- 3-11  110.68893048

  2- 4- 5  109.20136088   3- 2- 4  118.05543914   4- 5-12   98.74513954   6- 1- 7  108.93280659

  6- 1- 8  107.72042219   7- 1- 8  107.84183573   9- 3-10  109.10230537   9- 3-11  107.85818711

 10- 3-11  107.94046415

 NUCLEAR CHARGE:                   41
 NUMBER OF PRIMITIVE AOS:         184
 NUMBER OF SYMMETRY AOS:          179
 NUMBER OF CONTRACTIONS:          105   ( 105A   )
 NUMBER OF CORE ORBITALS:           5   (   5A   )
 NUMBER OF VALENCE ORBITALS:       27   (  27A   )


 NUCLEAR REPULSION ENERGY  183.19390766


 Eigenvalues of metric

         1 0.345E-02 0.435E-02 0.105E-01 0.141E-01 0.182E-01 0.214E-01 0.331E-01 0.346E-01


 Contracted 2-electron integrals neglected if value below      1.0D-16
 AO integral compression algorithm  1   Integral accuracy      1.0D-16

     127.140 MB (compressed) written to integral file ( 93.6%)

     Node minimum: 42.205 MB, node maximum: 42.467 MB


 NUMBER OF SORTED TWO-ELECTRON INTEGRALS:    5164320.     BUFFER LENGTH:  32768
 NUMBER OF SEGMENTS:   1  SEGMENT LENGTH:    5164320      RECORD LENGTH: 524288

 Memory used in sort:       5.72 MW

 SORT1 READ    17075251. AND WROTE     5135871. INTEGRALS IN     15 RECORDS. CPU TIME:     0.20 SEC, REAL TIME:     0.24 SEC
 SORT2 READ    15396547. AND WROTE    15487395. INTEGRALS IN    486 RECORDS. CPU TIME:     0.06 SEC, REAL TIME:     0.11 SEC

 Node minimum:     5160610.  Node maximum:     5164320. integrals

 OPERATOR DM      FOR CENTER  0  COORDINATES:    0.000000    0.000000    0.000000


 **********************************************************************************************************************************
 DATASETS  * FILE   NREC   LENGTH (MB)   RECORD NAMES
              1      18        3.17       500      610      700      900      950      970     1000      129      960     1100   
                                          VAR    BASINP    GEOM    SYMINP    ZMAT    AOBASIS   BASIS     P2S    ABASIS      S 
                                         1400     1410     1200     1210     1080     1600     1650     1700   
                                           T        V       H0       H01     AOSYM     SMH    MOLCAS    OPER   

 PROGRAMS   *        TOTAL       INT
 CPU TIMES  *         0.93      0.87
 REAL TIME  *         1.36 SEC
 DISK USED  *       304.08 MB      
 GA USED    *         0.00 MB       (max)       0.00 MB       (current)
 **********************************************************************************************************************************

1PROGRAM * RHF-SCF (OPEN SHELL)       Authors: W. Meyer, H.-J. Werner


 NUMBER OF ELECTRONS:      21+   20-    SPACE SYMMETRY=1    SPIN SYMMETRY: Doublet 
 CONVERGENCE THRESHOLDS:    1.00E-10 (Density)    1.00E-11 (Energy)
 MAX. NUMBER OF ITERATIONS:      200
 INTERPOLATION TYPE:            DIIS
 INTERPOLATION STEPS:              2 (START)      1 (STEP)
 LEVEL SHIFTS:                 -0.30 (CLOSED)  0.00 (OPEN) 



 Orbital guess generated from atomic densities. Full valence occupancy:   32

 Molecular orbital dump at record        2100.2

 ITERATION    DDIFF          GRAD             ENERGY        2-EL.EN.            DIPOLE MOMENTS         DIIS
    1      0.000D+00      0.000D+00      -267.17811065    555.771145    0.56949    0.04929   -0.75044    0
    2      0.000D+00      0.617D-02      -267.24878315    555.688885    0.41328   -0.13080   -0.59963    1
    3      0.927D-02      0.214D-02      -267.26096281    555.607777    0.39315   -0.05878   -0.62700    2
    4      0.336D-02      0.912D-03      -267.26457079    555.759470    0.37860   -0.09892   -0.64330    3
    5      0.186D-02      0.364D-03      -267.26513997    555.730807    0.38121   -0.09238   -0.63625    4
    6      0.792D-03      0.110D-03      -267.26521637    555.717046    0.37951   -0.09217   -0.63897    5
    7      0.277D-03      0.511D-04      -267.26523650    555.714023    0.37882   -0.09191   -0.63845    6
    8      0.144D-03      0.273D-04      -267.26524257    555.712076    0.37912   -0.09202   -0.63866    7
    9      0.924D-04      0.115D-04      -267.26524349    555.712391    0.37931   -0.09198   -0.63842    8
   10      0.366D-04      0.502D-05      -267.26524365    555.713005    0.37957   -0.09199   -0.63848    9
   11      0.147D-04      0.197D-05      -267.26524368    555.712846    0.37962   -0.09199   -0.63849    9
   12      0.652D-05      0.672D-06      -267.26524368    555.712981    0.37963   -0.09199   -0.63849    9
   13      0.228D-05      0.227D-06      -267.26524368    555.712897    0.37964   -0.09199   -0.63848    9
   14      0.633D-06      0.762D-07      -267.26524368    555.712905    0.37964   -0.09199   -0.63848    9
   15      0.194D-06      0.303D-07      -267.26524368    555.712901    0.37964   -0.09199   -0.63848    9
   16      0.832D-07      0.147D-07      -267.26524368    555.712903    0.37964   -0.09199   -0.63848    9
   17      0.380D-07      0.761D-08      -267.26524368    555.712903    0.37964   -0.09199   -0.63848    9
   18      0.227D-07      0.345D-08      -267.26524368    555.712903    0.37964   -0.09199   -0.63848    9
   19      0.116D-07      0.134D-08      -267.26524368    555.712903    0.37964   -0.09199   -0.63848    9
   20      0.446D-08      0.572D-09      -267.26524368    555.712903    0.37964   -0.09199   -0.63848    9
   21      0.167D-08      0.289D-09      -267.26524368    555.712903    0.37964   -0.09199   -0.63848    9
   22      0.763D-09      0.164D-09      -267.26524368    555.712903    0.37964   -0.09199   -0.63848    9
   23      0.452D-09      0.805D-10      -267.26524368    555.712903    0.37964   -0.09199   -0.63848    9
   24      0.267D-09      0.320D-10      -267.26524368    555.712903    0.37964   -0.09199   -0.63848    9
   25      0.942D-10      0.131D-10      -267.26524368    555.712903    0.37964   -0.09199   -0.63848    0

 Final alpha occupancy:  21
 Final beta  occupancy:  20

 !RHF STATE 1.1 Energy               -267.265243678991
 Nuclear energy                       183.19390766
 One-electron energy                 -728.31560284
 Two-electron energy                  277.85645150
 Virial quotient                       -1.00157710
 !RHF STATE 1.1 Dipole moment           0.37963897    -0.09198860    -0.63848333
 Dipole moment /Debye                   0.96488282    -0.23379640    -1.62275645

 Orbital energies:

         1.1          2.1          3.1          4.1          5.1          6.1          7.1          8.1          9.1         10.1
    -20.630493   -20.628915   -11.279321   -11.237858   -11.232368    -1.469801    -1.240408    -1.023167    -0.945259    -0.768276

        11.1         12.1         13.1         14.1         15.1         16.1         17.1         18.1         19.1         20.1
     -0.704275    -0.642950    -0.626596    -0.588692    -0.544964    -0.543362    -0.538831    -0.516902    -0.492917    -0.469805

        21.1         22.1         23.1
     -0.352379     0.181157     0.183411


 **********************************************************************************************************************************
 DATASETS  * FILE   NREC   LENGTH (MB)   RECORD NAMES
              1      18        3.17       500      610      700      900      950      970     1000      129      960     1100   
                                          VAR    BASINP    GEOM    SYMINP    ZMAT    AOBASIS   BASIS     P2S    ABASIS      S 
                                         1400     1410     1200     1210     1080     1600     1650     1700   
                                           T        V       H0       H01     AOSYM     SMH    MOLCAS    OPER   

              2       3        0.77       700     1000     2100   
                                         GEOM     BASIS     RHF  

 PROGRAMS   *        TOTAL       RHF       INT
 CPU TIMES  *         2.04      1.10      0.87
 REAL TIME  *         2.60 SEC
 DISK USED  *       320.65 MB      
 SF USED    *         0.04 MB      
 GA USED    *         0.00 MB       (max)       0.00 MB       (current)
 **********************************************************************************************************************************


1PROGRAM * CCSD (Unrestricted open-shell coupled cluster)     Authors: C. Hampel, H.-J. Werner, 1991, M. Deegan, P.J. Knowles, 1992


 Convergence thresholds:  THRVAR = 1.00D-08  THRDEN = 1.00D-10

 CCSD(T)     terms to be evaluated (factor= 1.000)


 Number of core orbitals:           5 (   5 )
 Number of closed-shell orbitals:  15 (  15 )
 Number of active  orbitals:        1 (   1 )
 Number of external orbitals:      84 (  84 )

 Memory could be reduced to 24.91 Mwords without degradation in triples

 Number of N-1 electron functions:              31
 Number of N-2 electron functions:             465
 Number of singly external CSFs:              2635
 Number of doubly external CSFs:           2537250
 Total number of CSFs:                     2539885

 Molecular orbitals read from record     2100.2  Type=RHF/CANONICAL (state 1.1)

 Integral transformation finished. Total CPU:   0.91 sec, npass=  1  Memory used:  12.63 MW

 Starting RMP2 calculation

 ITER.      SQ.NORM     CORR.ENERGY   TOTAL ENERGY   ENERGY CHANGE        DEN1      VAR(S)    VAR(P)  DIIS     TIME
   1      1.24314457    -0.78650251  -268.05174619    -0.78650251    -0.00305217  0.20D-04  0.11D-02  1  1     1.24
   2      1.24578905    -0.78979414  -268.05503782    -0.00329163    -0.00000475  0.54D-06  0.19D-05  2  2     1.54
   3      1.24585471    -0.78983626  -268.05507994    -0.00004212    -0.00000003  0.16D-07  0.68D-08  3  3     1.87
   4      1.24585567    -0.78983626  -268.05507994    -0.00000000    -0.00000000  0.27D-09  0.38D-10  4  4     2.23
   5      1.24585575    -0.78983630  -268.05507998    -0.00000003    -0.00000000  0.26D-11  0.66D-12  5  5     2.61
   6      1.24585577    -0.78983630  -268.05507998    -0.00000001    -0.00000000  0.28D-13  0.87D-14  6  6     3.03
   7      1.24585577    -0.78983630  -268.05507998     0.00000000    -0.00000000  0.47D-15  0.12D-15  6  1     3.45
   8      1.24585577    -0.78983630  -268.05507998     0.00000000    -0.00000000  0.60D-17  0.13D-17  6  2     3.88

 Norm of t1 vector:      0.03893382      S-energy:    -0.00227139      T1 diagnostic:  0.00055058
 Norm of t2 vector:      0.49430752      P-energy:    -0.78756491
                                         Alpha-Beta:  -0.59352388
                                         Alpha-Alpha: -0.10095135
                                         Beta-Beta:   -0.09308968

 Spin contamination <S**2-Sz**2-Sz>     0.00104016
  Reference energy                   -267.265243678993
  RHF-RMP2 correlation energy          -0.789836303724
 !RHF-RMP2 energy                    -268.055079982716

 Starting UCCSD calculation

 ITER.      SQ.NORM     CORR.ENERGY   TOTAL ENERGY   ENERGY CHANGE        DEN1      VAR(S)    VAR(P)  DIIS     TIME
   1      1.26291322    -0.80914887  -268.07439255    -0.80914887    -0.02517400  0.38D-02  0.59D-02  1  1     9.22
   2      1.29171832    -0.83657595  -268.10181963    -0.02742708    -0.00201452  0.22D-03  0.66D-03  2  2    14.57
   3      1.30167740    -0.84108108  -268.10632476    -0.00450513    -0.00032513  0.19D-03  0.56D-04  3  3    19.93
   4      1.30659985    -0.84256082  -268.10780450    -0.00147974    -0.00007216  0.43D-04  0.14D-04  4  4    25.35
   5      1.30933224    -0.84294931  -268.10819299    -0.00038849    -0.00002370  0.19D-04  0.32D-05  5  5    30.75
   6      1.31127285    -0.84315396  -268.10839763    -0.00020464    -0.00000647  0.42D-05  0.12D-05  6  6    36.19
   7      1.31222326    -0.84321278  -268.10845645    -0.00005882    -0.00000208  0.14D-05  0.37D-06  6  2    41.65
   8      1.31266587    -0.84325555  -268.10849923    -0.00004277    -0.00000065  0.45D-06  0.11D-06  6  1    47.10
   9      1.31285159    -0.84326016  -268.10850384    -0.00000461    -0.00000022  0.15D-06  0.35D-07  6  4    52.55
  10      1.31291508    -0.84326311  -268.10850679    -0.00000296    -0.00000005  0.35D-07  0.96D-08  6  3    58.02
  11      1.31294467    -0.84326184  -268.10850552     0.00000127    -0.00000002  0.13D-07  0.28D-08  6  5    63.46
  12      1.31295508    -0.84326158  -268.10850525     0.00000026    -0.00000000  0.26D-08  0.96D-09  6  6    68.92
  13      1.31295394    -0.84326066  -268.10850434     0.00000092    -0.00000000  0.97D-09  0.29D-09  6  2    74.38
  14      1.31294873    -0.84325981  -268.10850349     0.00000085    -0.00000000  0.21D-09  0.68D-10  6  1    79.82
  15      1.31294465    -0.84325923  -268.10850290     0.00000059    -0.00000000  0.79D-10  0.19D-10  6  4    85.27
  16      1.31294145    -0.84325884  -268.10850252     0.00000039    -0.00000000  0.28D-10  0.63D-11  6  3    90.73
  17      1.31293925    -0.84325860  -268.10850228     0.00000024    -0.00000000  0.10D-10  0.24D-11  6  5    96.17
  18      1.31293834    -0.84325854  -268.10850222     0.00000006    -0.00000000  0.41D-11  0.88D-12  6  6   101.64
  19      1.31293772    -0.84325851  -268.10850219     0.00000003    -0.00000000  0.16D-11  0.37D-12  6  2   107.04
  20      1.31293740    -0.84325849  -268.10850217     0.00000001    -0.00000000  0.60D-12  0.13D-12  6  1   112.49
  21      1.31293724    -0.84325848  -268.10850216     0.00000001    -0.00000000  0.28D-12  0.58D-13  6  4   117.93
  22      1.31293712    -0.84325848  -268.10850215     0.00000001    -0.00000000  0.74D-13  0.22D-13  6  3   123.39
  23      1.31293706    -0.84325847  -268.10850215     0.00000000    -0.00000000  0.22D-13  0.63D-14  6  5   128.84
  24      1.31293705    -0.84325847  -268.10850215    -0.00000000    -0.00000000  0.68D-14  0.23D-14  6  6   134.29
  25      1.31293706    -0.84325848  -268.10850215    -0.00000000    -0.00000000  0.21D-14  0.53D-15  6  2   139.73
  26      1.31293706    -0.84325848  -268.10850215    -0.00000000    -0.00000000  0.78D-15  0.16D-15  6  1   145.23
  27      1.31293707    -0.84325848  -268.10850216    -0.00000000    -0.00000000  0.20D-15  0.63D-16  6  3   150.72
  28      1.31293708    -0.84325848  -268.10850216    -0.00000000    -0.00000000  0.30D-16  0.11D-16  6  4   156.78
  29      1.31293708    -0.84325848  -268.10850216    -0.00000000    -0.00000000  0.72D-17  0.30D-17  6  5   164.53
  30      1.31293708    -0.84325848  -268.10850216    -0.00000000    -0.00000000  0.15D-17  0.55D-18  6  6   172.32
  31      1.31293708    -0.84325848  -268.10850216    -0.00000000    -0.00000000  0.36D-18  0.11D-18  6  2   180.10

 Norm of t1 vector:      0.13878495      S-energy:    -0.00282124      T1 diagnostic:  0.01617797
                                                                       D1 diagnostic:  0.06284371
 Norm of t2 vector:      0.54191865      P-energy:    -0.84043724
                                         Alpha-Beta:  -0.66499404
                                         Alpha-Alpha: -0.09147306
                                         Beta-Beta:   -0.08397013

 Spin contamination <S**2-Sz**2-Sz>     0.00217256

 Memory could be reduced to 28.85 Mwords without degradation in triples
 

 RESULTS
 =======

  Reference energy                   -267.265243678993
  UCCSD singles energy                 -0.002821239311
  UCCSD pair energy                    -0.840437237716
  UCCSD correlation energy             -0.843258477027
  Triples (T) contribution             -0.024992175113
  Total correlation energy             -0.868250652140
 
  RHF-UCCSD energy                   -268.108502156020
  RHF-UCCSD[T] energy                -268.134831945941
  RHF-UCCSD-T energy                 -268.133072235389
 !RHF-UCCSD(T) energy                -268.133494331133

 Program statistics:

 Available memory in ccsd:               999997692
 Min. memory needed in ccsd:               7337057
 Max. memory used in ccsd:                10523002
 Max. memory used in cckext:              10867977 (31 integral passes)
 Max. memory used in cckint:              12633073 ( 1 integral passes)



 **********************************************************************************************************************************
 DATASETS  * FILE   NREC   LENGTH (MB)   RECORD NAMES
              1      18        3.17       500      610      700      900      950      970     1000      129      960     1100   
                                          VAR    BASINP    GEOM    SYMINP    ZMAT    AOBASIS   BASIS     P2S    ABASIS      S 
                                         1400     1410     1200     1210     1080     1600     1650     1700   
                                           T        V       H0       H01     AOSYM     SMH    MOLCAS    OPER   

              2       3        0.77       700     1000     2100   
                                         GEOM     BASIS     RHF  

 PROGRAMS   *        TOTAL  UCCSD(T)       RHF       INT
 CPU TIMES  *       241.24    239.21      1.10      0.87
 REAL TIME  *       259.68 SEC
 DISK USED  *         1.29 GB      
 SF USED    *       553.73 MB      
 GA USED    *         0.00 MB       (max)       0.00 MB       (current)
 **********************************************************************************************************************************

        UCCSD(T)        RHF-SCF 
   -268.13349433   -267.26524368
 **********************************************************************************************************************************
 Variable memory released
