
 Primary working directories    : /tmp/320938.469.gen6.q
 Secondary working directories  : /tmp/320938.469.gen6.q
 Wavefunction directory         : /home/vulcan/mel64643/wfu/
 Main file repository           : /tmp/320938.469.gen6.q/

 ARCHNAME  : Linux/x86_64
 FC        : /opt/intel/compilers_and_libraries_2016.1.150/linux/bin/intel64/ifort
 FCVERSION : 16.0.1
 BLASLIB   : -mkl
 id        : ccgc

 Nodes     nprocs
 n076         3
 Number of processes for MPI-2 version of Molpro:   nprocs(total)=    4   nprocs(compute)=    3   nprocs(helper)=    1
 ga_uses_ma=false, calling ma_init with nominal heap.
 GA-space will be limited to   8.0 MW (determined by -G option)

 Using customized tuning parameters: mindgm=10; mindgv=16; mindgc=4; mindgr=1; noblas=0; mincuda=1000; minvec=7
 default implementation of scratch files=sf  

 ***,Frequencies for min3
 memory,1000,m
 gthresh,energy=1.0d-10,orbital=1.0d-10,oneint=1.0d-16,twoint=1.0d-16,optgrad=1.0d-6,compress=1.0d-13
 geomtyp=xyz
 
  geometry = {
  12
  arbitrary comment
     C    1.776964391707    0.711398808326   -0.047331391796
     C    0.491811976407   -0.059992870174   -0.196493901896
     C    0.450332819107   -1.536294019674    0.101417522804
     O   -0.560767745493    0.727234937526    0.254453964104
     O   -1.837840335593    0.092269037726   -0.120531795196
     H    2.585373063107    0.209225075821   -0.611389330363
     H    1.659989573005    1.743542090086   -0.428140153325
     H    2.094524483159    0.774384715777    1.019309358895
     H   -0.504380804853   -1.982498208643   -0.220583191088
     H    1.282444037186   -2.046267006840   -0.417332541406
     H    0.561907400352   -1.719403368814    1.194617372338
     H   -1.988174143506    0.551104707295   -0.966298589320
  }
 
 basis=cc-pvdz
 {rhf;maxit,200}
 {uccsd(t);maxit,200}

 Variables initialized (661), CPU time= 0.00 sec
 Commands  initialized (458), CPU time= 0.01 sec, 486 directives.
 Default parameters read. Elapsed time= 0.06 sec

 Checking input...
 Passed
1


                                         ***  PROGRAM SYSTEM MOLPRO  ***
                         Copyright, University College Cardiff Consultants Limited, 2008

                                    Version 2010.1 linked May 16 2016 07:17:05


 **********************************************************************************************************************************
 LABEL *   Frequencies for min3                                                          
 Linux-4.4.3/n076(x86_64) 64 bit mpp version                                             DATE: 07-Mar-20          TIME: 03:42:49  
 **********************************************************************************************************************************

 SHA1:             9e8077add272b0f3cad6f7df79ec5211205f459d
 **********************************************************************************************************************************

 THRESHOLDS:

 ZERO    =  1.00D-12  ONEINT  =  1.00D-16  TWOINT  =  1.00D-16  PREFAC  =  1.00D-14  LOCALI  =  1.00D-09  EORDER  =  1.00D-04
 ENERGY  =  1.00D-10  ETEST   =  0.00D+00  EDENS   =  0.00D+00  THRDEDEF=  1.00D-06  GRADIENT=  1.00D-02  STEP    =  1.00D-03
 ORBITAL =  1.00D-10  CIVEC   =  1.00D-05  COEFF   =  1.00D-04  PRINTCI =  5.00D-02  PUNCHCI =  9.90D+01  OPTGRAD =  1.00D-06
 OPTENERG=  1.00D-06  OPTSTEP =  3.00D-04  THRGRAD =  1.00D-10  COMPRESS=  1.00D-13  VARMIN  =  1.00D-07  VARMAX  =  1.00D-03
 THRDOUB =  0.00D+00  THRDIV  =  1.00D-05  THRRED  =  1.00D-07  THRPSP  =  1.00D+00  THRDC   =  1.00D-10  THRCS   =  1.00D-10
 THRNRM  =  1.00D-08  THREQ   =  0.00D+00  THRDE   =  1.00D+00  THRREF  =  1.00D-05  SPARFAC =  1.00D+00  THRDLP  =  1.00D-07
 THRDIA  =  1.00D-10  THRDLS  =  1.00D-07  THRGPS  =  0.00D+00  THRKEX  =  0.00D+00  THRDIS  =  2.00D-01  THRVAR  =  1.00D-10
 THRLOC  =  1.00D-06  THRGAP  =  1.00D-06  THRLOCT = -1.00D+00  THRGAPT = -1.00D+00  THRORB  =  1.00D-06  THRMLTP =  0.00D+00
 THRCPQCI=  1.00D-10  KEXTA   =  0.00D+00  THRCOARS=  0.00D+00  SYMTOL  =  1.00D-06  GRADTOL =  1.00D-06  THROVL  =  1.00D-08
 THRORTH =  1.00D-08  GRID    =  1.00D-06  GRIDMAX =  1.00D-03  DTMAX   =  0.00D+00

 SETTING GEOMTYP        =    XYZ

 Variable memory set to 1000000000 words,  buffer space   230000 words

 SETTING BASIS          =    CC-PVDZ


 Recomputing integrals since basis changed


 Using spherical harmonics

 Library entry C      S cc-pVDZ              selected for orbital group  1
 Library entry C      P cc-pVDZ              selected for orbital group  1
 Library entry C      D cc-pVDZ              selected for orbital group  1
 Library entry O      S cc-pVDZ              selected for orbital group  2
 Library entry O      P cc-pVDZ              selected for orbital group  2
 Library entry O      D cc-pVDZ              selected for orbital group  2
 Library entry H      S cc-pVDZ              selected for orbital group  3
 Library entry H      P cc-pVDZ              selected for orbital group  3

1PROGRAM * SEWARD (Integral evaluation for generally contracted gaussian basis sets)     Author: Roland Lindh, 1990

 Geometry written to block  1 of record 700


 Point group  C1  



 ATOMIC COORDINATES

 NR  ATOM    CHARGE       X              Y              Z

   1  C       6.00    3.357976046    1.344348918   -0.089443368
   2  C       6.00    0.929389944   -0.113370094   -0.371319661
   3  C       6.00    0.851005696   -2.903174955    0.191651343
   4  O       8.00   -1.059697462    1.374274865    0.480848305
   5  O       8.00   -3.473014908    0.174363212   -0.227772083
   6  H       1.00    4.885647037    0.395378093   -1.155358394
   7  H       1.00    3.136925674    3.294817049   -0.809067636
   8  H       1.00    3.958077649    1.463375033    1.926215532
   9  H       1.00   -0.953141587   -3.746378670   -0.416841820
  10  H       1.00    2.423468009   -3.866884235   -0.788644209
  11  H       1.00    1.061851098   -3.249201477    2.257499666
  12  H       1.00   -3.757104633    1.041436967   -1.826039695

 Bond lengths in Bohr (Angstrom)

 1-2  2.846476668  1-6  2.090573875  1-7  2.090705212  1-8  2.106459102  2-3  2.847119878
     ( 1.506290578)     ( 1.106284048)     ( 1.106353549)     ( 1.114690149)     ( 1.506630951)

  2- 4  2.625975338   3- 9  2.082355363   3-10  2.088624589   3-11  2.105212443   4- 5  2.786760112
       ( 1.389606300)       ( 1.101934999)       ( 1.105252530)       ( 1.114030445)       ( 1.474689938)

  5-12  1.840375839
       ( 0.973884950)

 Bond angles

  1-2-3  120.37866573   1-2-4  108.90555081   2-1-6  109.90789723   2-1-7  110.69969165

  2- 1- 8  111.51576608   2- 3- 9  111.27524670   2- 3-10  109.79078040   2- 3-11  110.63029731

  2- 4- 5  109.23946113   3- 2- 4  118.03986083   4- 5-12   98.72240685   6- 1- 7  108.98040476

  6- 1- 8  107.77981303   7- 1- 8  107.86471878   9- 3-10  109.16542430   9- 3-11  107.87651271

 10- 3-11  108.01889847

 NUCLEAR CHARGE:                   41
 NUMBER OF PRIMITIVE AOS:         184
 NUMBER OF SYMMETRY AOS:          179
 NUMBER OF CONTRACTIONS:          105   ( 105A   )
 NUMBER OF CORE ORBITALS:           5   (   5A   )
 NUMBER OF VALENCE ORBITALS:       27   (  27A   )


 NUCLEAR REPULSION ENERGY  183.21720969


 Eigenvalues of metric

         1 0.345E-02 0.435E-02 0.105E-01 0.141E-01 0.182E-01 0.214E-01 0.331E-01 0.346E-01


 Contracted 2-electron integrals neglected if value below      1.0D-16
 AO integral compression algorithm  1   Integral accuracy      1.0D-16

     127.402 MB (compressed) written to integral file ( 93.4%)

     Node minimum: 40.632 MB, node maximum: 43.778 MB


 NUMBER OF SORTED TWO-ELECTRON INTEGRALS:    5164320.     BUFFER LENGTH:  32768
 NUMBER OF SEGMENTS:   1  SEGMENT LENGTH:    5164320      RECORD LENGTH: 524288

 Memory used in sort:       5.72 MW

 SORT1 READ    17075629. AND WROTE     5135893. INTEGRALS IN     15 RECORDS. CPU TIME:     0.19 SEC, REAL TIME:     0.22 SEC
 SORT2 READ    15396611. AND WROTE    15487395. INTEGRALS IN    501 RECORDS. CPU TIME:     0.05 SEC, REAL TIME:     0.09 SEC

 Node minimum:     5160610.  Node maximum:     5164320. integrals

 OPERATOR DM      FOR CENTER  0  COORDINATES:    0.000000    0.000000    0.000000


 **********************************************************************************************************************************
 DATASETS  * FILE   NREC   LENGTH (MB)   RECORD NAMES
              1      18        3.17       500      610      700      900      950      970     1000      129      960     1100   
                                          VAR    BASINP    GEOM    SYMINP    ZMAT    AOBASIS   BASIS     P2S    ABASIS      S 
                                         1400     1410     1200     1210     1080     1600     1650     1700   
                                           T        V       H0       H01     AOSYM     SMH    MOLCAS    OPER   

 PROGRAMS   *        TOTAL       INT
 CPU TIMES  *         0.82      0.74
 REAL TIME  *         1.22 SEC
 DISK USED  *       305.71 MB      
 GA USED    *         0.00 MB       (max)       0.00 MB       (current)
 **********************************************************************************************************************************

1PROGRAM * RHF-SCF (OPEN SHELL)       Authors: W. Meyer, H.-J. Werner


 NUMBER OF ELECTRONS:      21+   20-    SPACE SYMMETRY=1    SPIN SYMMETRY: Doublet 
 CONVERGENCE THRESHOLDS:    1.00E-10 (Density)    1.00E-11 (Energy)
 MAX. NUMBER OF ITERATIONS:      200
 INTERPOLATION TYPE:            DIIS
 INTERPOLATION STEPS:              2 (START)      1 (STEP)
 LEVEL SHIFTS:                 -0.30 (CLOSED)  0.00 (OPEN) 



 Orbital guess generated from atomic densities. Full valence occupancy:   32

 Molecular orbital dump at record        2100.2

 ITERATION    DDIFF          GRAD             ENERGY        2-EL.EN.            DIPOLE MOMENTS         DIIS
    1      0.000D+00      0.000D+00      -267.17822490    555.808476    0.57150    0.05003   -0.74886    0
    2      0.000D+00      0.617D-02      -267.24888242    555.729518    0.41396   -0.13112   -0.59848    1
    3      0.927D-02      0.214D-02      -267.26106117    555.647788    0.39348   -0.05928   -0.62586    2
    4      0.336D-02      0.912D-03      -267.26467043    555.799951    0.37867   -0.09950   -0.64228    3
    5      0.186D-02      0.363D-03      -267.26523975    555.771307    0.38112   -0.09306   -0.63526    4
    6      0.792D-03      0.110D-03      -267.26531619    555.757593    0.37936   -0.09287   -0.63801    5
    7      0.277D-03      0.511D-04      -267.26533634    555.754569    0.37863   -0.09262   -0.63750    6
    8      0.144D-03      0.273D-04      -267.26534240    555.752631    0.37890   -0.09274   -0.63771    7
    9      0.924D-04      0.115D-04      -267.26534332    555.752940    0.37908   -0.09269   -0.63747    8
   10      0.366D-04      0.501D-05      -267.26534347    555.753553    0.37934   -0.09271   -0.63753    9
   11      0.147D-04      0.196D-05      -267.26534350    555.753395    0.37939   -0.09270   -0.63754    9
   12      0.651D-05      0.670D-06      -267.26534350    555.753529    0.37941   -0.09270   -0.63753    9
   13      0.227D-05      0.226D-06      -267.26534350    555.753445    0.37941   -0.09270   -0.63753    9
   14      0.632D-06      0.759D-07      -267.26534350    555.753453    0.37941   -0.09270   -0.63753    9
   15      0.193D-06      0.302D-07      -267.26534350    555.753449    0.37942   -0.09270   -0.63753    9
   16      0.828D-07      0.146D-07      -267.26534350    555.753451    0.37942   -0.09270   -0.63753    9
   17      0.377D-07      0.755D-08      -267.26534350    555.753451    0.37942   -0.09270   -0.63753    9
   18      0.224D-07      0.343D-08      -267.26534350    555.753451    0.37942   -0.09270   -0.63753    9
   19      0.115D-07      0.133D-08      -267.26534350    555.753451    0.37942   -0.09270   -0.63753    9
   20      0.444D-08      0.569D-09      -267.26534350    555.753451    0.37942   -0.09270   -0.63753    9
   21      0.166D-08      0.288D-09      -267.26534350    555.753451    0.37942   -0.09270   -0.63753    9
   22      0.758D-09      0.163D-09      -267.26534350    555.753451    0.37942   -0.09270   -0.63753    9
   23      0.449D-09      0.800D-10      -267.26534350    555.753451    0.37942   -0.09270   -0.63753    9
   24      0.265D-09      0.318D-10      -267.26534350    555.753451    0.37942   -0.09270   -0.63753    9
   25      0.936D-10      0.130D-10      -267.26534350    555.753451    0.37942   -0.09270   -0.63753    0

 Final alpha occupancy:  21
 Final beta  occupancy:  20

 !RHF STATE 1.1 Energy               -267.265343502146
 Nuclear energy                       183.21720969
 One-electron energy                 -728.35927875
 Two-electron energy                  277.87672555
 Virial quotient                       -1.00156722
 !RHF STATE 1.1 Dipole moment           0.37941578    -0.09270430    -0.63753162
 Dipole moment /Debye                   0.96431557    -0.23561540    -1.62033762

 Orbital energies:

         1.1          2.1          3.1          4.1          5.1          6.1          7.1          8.1          9.1         10.1
    -20.630474   -20.628774   -11.279259   -11.238289   -11.232165    -1.470218    -1.240817    -1.023180    -0.945174    -0.768344

        11.1         12.1         13.1         14.1         15.1         16.1         17.1         18.1         19.1         20.1
     -0.704683    -0.642944    -0.626748    -0.588694    -0.545160    -0.543366    -0.538829    -0.516893    -0.492976    -0.469776

        21.1         22.1         23.1
     -0.352307     0.181276     0.183510


 **********************************************************************************************************************************
 DATASETS  * FILE   NREC   LENGTH (MB)   RECORD NAMES
              1      18        3.17       500      610      700      900      950      970     1000      129      960     1100   
                                          VAR    BASINP    GEOM    SYMINP    ZMAT    AOBASIS   BASIS     P2S    ABASIS      S 
                                         1400     1410     1200     1210     1080     1600     1650     1700   
                                           T        V       H0       H01     AOSYM     SMH    MOLCAS    OPER   

              2       3        0.77       700     1000     2100   
                                         GEOM     BASIS     RHF  

 PROGRAMS   *        TOTAL       RHF       INT
 CPU TIMES  *         1.72      0.90      0.74
 REAL TIME  *         2.24 SEC
 DISK USED  *       322.27 MB      
 SF USED    *         0.04 MB      
 GA USED    *         0.00 MB       (max)       0.00 MB       (current)
 **********************************************************************************************************************************


1PROGRAM * CCSD (Unrestricted open-shell coupled cluster)     Authors: C. Hampel, H.-J. Werner, 1991, M. Deegan, P.J. Knowles, 1992


 Convergence thresholds:  THRVAR = 1.00D-08  THRDEN = 1.00D-10

 CCSD(T)     terms to be evaluated (factor= 1.000)


 Number of core orbitals:           5 (   5 )
 Number of closed-shell orbitals:  15 (  15 )
 Number of active  orbitals:        1 (   1 )
 Number of external orbitals:      84 (  84 )

 Memory could be reduced to 24.91 Mwords without degradation in triples

 Number of N-1 electron functions:              31
 Number of N-2 electron functions:             465
 Number of singly external CSFs:              2635
 Number of doubly external CSFs:           2537250
 Total number of CSFs:                     2539885

 Molecular orbitals read from record     2100.2  Type=RHF/CANONICAL (state 1.1)

 Integral transformation finished. Total CPU:   0.69 sec, npass=  1  Memory used:  12.63 MW

 Starting RMP2 calculation

 ITER.      SQ.NORM     CORR.ENERGY   TOTAL ENERGY   ENERGY CHANGE        DEN1      VAR(S)    VAR(P)  DIIS     TIME
   1      1.24307059    -0.78640451  -268.05174802    -0.78640451    -0.00305078  0.20D-04  0.11D-02  1  1     0.94
   2      1.24571337    -0.78969461  -268.05503812    -0.00329010    -0.00000475  0.54D-06  0.19D-05  2  2     1.18
   3      1.24577898    -0.78973671  -268.05508021    -0.00004210    -0.00000003  0.16D-07  0.68D-08  3  3     1.44
   4      1.24577993    -0.78973671  -268.05508022    -0.00000000    -0.00000000  0.27D-09  0.38D-10  4  4     1.73
   5      1.24578002    -0.78973675  -268.05508025    -0.00000003    -0.00000000  0.25D-11  0.65D-12  5  5     2.03
   6      1.24578003    -0.78973675  -268.05508025    -0.00000001    -0.00000000  0.28D-13  0.87D-14  6  6     2.36
   7      1.24578003    -0.78973675  -268.05508025     0.00000000    -0.00000000  0.47D-15  0.12D-15  6  1     2.69
   8      1.24578003    -0.78973675  -268.05508025     0.00000000    -0.00000000  0.60D-17  0.13D-17  6  2     3.01

 Norm of t1 vector:      0.03893300      S-energy:    -0.00227144      T1 diagnostic:  0.00055049
 Norm of t2 vector:      0.49423097      P-energy:    -0.78746532
                                         Alpha-Beta:  -0.59344510
                                         Alpha-Alpha: -0.10094102
                                         Beta-Beta:   -0.09307920

 Spin contamination <S**2-Sz**2-Sz>     0.00104031
  Reference energy                   -267.265343502146
  RHF-RMP2 correlation energy          -0.789736751849
 !RHF-RMP2 energy                    -268.055080253995

 Starting UCCSD calculation

 ITER.      SQ.NORM     CORR.ENERGY   TOTAL ENERGY   ENERGY CHANGE        DEN1      VAR(S)    VAR(P)  DIIS     TIME
   1      1.26285460    -0.80907752  -268.07442102    -0.80907752    -0.02516205  0.38D-02  0.59D-02  1  1     7.60
   2      1.29164344    -0.83649418  -268.10183769    -0.02741666    -0.00201198  0.22D-03  0.66D-03  2  2    12.20
   3      1.30159088    -0.84099503  -268.10633853    -0.00450084    -0.00032472  0.19D-03  0.56D-04  3  3    16.82
   4      1.30650563    -0.84247279  -268.10781629    -0.00147777    -0.00007208  0.43D-04  0.14D-04  4  4    21.45
   5      1.30923529    -0.84286097  -268.10820447    -0.00038818    -0.00002367  0.19D-04  0.32D-05  5  5    26.11
   6      1.31117382    -0.84306541  -268.10840891    -0.00020444    -0.00000645  0.42D-05  0.12D-05  6  6    30.78
   7      1.31212261    -0.84312416  -268.10846766    -0.00005875    -0.00000208  0.14D-05  0.37D-06  6  2    35.45
   8      1.31256384    -0.84316683  -268.10851033    -0.00004267    -0.00000065  0.45D-06  0.11D-06  6  1    40.13
   9      1.31274885    -0.84317140  -268.10851491    -0.00000458    -0.00000022  0.15D-06  0.35D-07  6  4    44.82
  10      1.31281200    -0.84317434  -268.10851784    -0.00000293    -0.00000005  0.35D-07  0.95D-08  6  3    49.52
  11      1.31284148    -0.84317308  -268.10851658     0.00000126    -0.00000002  0.13D-07  0.28D-08  6  5    54.19
  12      1.31285183    -0.84317281  -268.10851631     0.00000026    -0.00000000  0.26D-08  0.95D-09  6  6    58.88
  13      1.31285069    -0.84317190  -268.10851540     0.00000092    -0.00000000  0.96D-09  0.28D-09  6  2    63.57
  14      1.31284549    -0.84317105  -268.10851455     0.00000084    -0.00000000  0.21D-09  0.68D-10  6  1    68.24
  15      1.31284141    -0.84317047  -268.10851397     0.00000059    -0.00000000  0.78D-10  0.19D-10  6  4    72.94
  16      1.31283823    -0.84317008  -268.10851358     0.00000038    -0.00000000  0.28D-10  0.63D-11  6  3    77.61
  17      1.31283603    -0.84316984  -268.10851335     0.00000024    -0.00000000  0.10D-10  0.24D-11  6  5    82.32
  18      1.31283513    -0.84316978  -268.10851329     0.00000006    -0.00000000  0.41D-11  0.87D-12  6  6    87.02
  19      1.31283452    -0.84316975  -268.10851325     0.00000003    -0.00000000  0.16D-11  0.37D-12  6  2    91.69
  20      1.31283420    -0.84316974  -268.10851324     0.00000001    -0.00000000  0.60D-12  0.13D-12  6  1    96.39
  21      1.31283404    -0.84316973  -268.10851323     0.00000001    -0.00000000  0.28D-12  0.58D-13  6  4   101.08
  22      1.31283391    -0.84316972  -268.10851322     0.00000001    -0.00000000  0.74D-13  0.21D-13  6  3   106.01
  23      1.31283386    -0.84316972  -268.10851322     0.00000000    -0.00000000  0.21D-13  0.63D-14  6  5   110.70
  24      1.31283385    -0.84316972  -268.10851322    -0.00000000    -0.00000000  0.67D-14  0.23D-14  6  6   115.35
  25      1.31283385    -0.84316972  -268.10851322    -0.00000000    -0.00000000  0.21D-14  0.52D-15  6  2   120.04
  26      1.31283386    -0.84316972  -268.10851322    -0.00000000    -0.00000000  0.77D-15  0.15D-15  6  1   124.74
  27      1.31283387    -0.84316972  -268.10851322    -0.00000000    -0.00000000  0.20D-15  0.63D-16  6  3   129.42
  28      1.31283387    -0.84316972  -268.10851322    -0.00000000    -0.00000000  0.30D-16  0.11D-16  6  4   134.10
  29      1.31283388    -0.84316972  -268.10851322    -0.00000000    -0.00000000  0.71D-17  0.29D-17  6  5   138.79
  30      1.31283388    -0.84316972  -268.10851322    -0.00000000    -0.00000000  0.15D-17  0.54D-18  6  6   143.45
  31      1.31283388    -0.84316972  -268.10851322    -0.00000000    -0.00000000  0.35D-18  0.10D-18  6  2   148.12

 Norm of t1 vector:      0.13871260      S-energy:    -0.00282107      T1 diagnostic:  0.01616853
                                                                       D1 diagnostic:  0.06282065
 Norm of t2 vector:      0.54184194      P-energy:    -0.84034865
                                         Alpha-Beta:  -0.66490853
                                         Alpha-Alpha: -0.09147157
                                         Beta-Beta:   -0.08396855

 Spin contamination <S**2-Sz**2-Sz>     0.00217051

 Memory could be reduced to 28.85 Mwords without degradation in triples
 

 RESULTS
 =======

  Reference energy                   -267.265343502146
  UCCSD singles energy                 -0.002821072299
  UCCSD pair energy                    -0.840348648566
  UCCSD correlation energy             -0.843169720864
  Triples (T) contribution             -0.024981116514
  Total correlation energy             -0.868150837378
 
  RHF-UCCSD energy                   -268.108513223010
  RHF-UCCSD[T] energy                -268.134830306305
  RHF-UCCSD-T energy                 -268.133072778325
 !RHF-UCCSD(T) energy                -268.133494339524

 Program statistics:

 Available memory in ccsd:               999997692
 Min. memory needed in ccsd:               7337057
 Max. memory used in ccsd:                10523002
 Max. memory used in cckext:              10867977 (31 integral passes)
 Max. memory used in cckint:              12633073 ( 1 integral passes)



 **********************************************************************************************************************************
 DATASETS  * FILE   NREC   LENGTH (MB)   RECORD NAMES
              1      18        3.17       500      610      700      900      950      970     1000      129      960     1100   
                                          VAR    BASINP    GEOM    SYMINP    ZMAT    AOBASIS   BASIS     P2S    ABASIS      S 
                                         1400     1410     1200     1210     1080     1600     1650     1700   
                                           T        V       H0       H01     AOSYM     SMH    MOLCAS    OPER   

              2       3        0.77       700     1000     2100   
                                         GEOM     BASIS     RHF  

 PROGRAMS   *        TOTAL  UCCSD(T)       RHF       INT
 CPU TIMES  *       185.64    183.92      0.90      0.74
 REAL TIME  *       195.13 SEC
 DISK USED  *         1.29 GB      
 SF USED    *       553.73 MB      
 GA USED    *         0.00 MB       (max)       0.00 MB       (current)
 **********************************************************************************************************************************

        UCCSD(T)        RHF-SCF 
   -268.13349434   -267.26534350
 **********************************************************************************************************************************
 Variable memory released
