
 Primary working directories    : /tmp/320938.591.gen4.q
 Secondary working directories  : /tmp/320938.591.gen4.q
 Wavefunction directory         : /home/vulcan/mel64643/wfu/
 Main file repository           : /tmp/320938.591.gen4.q/

 ARCHNAME  : Linux/x86_64
 FC        : /opt/intel/compilers_and_libraries_2016.1.150/linux/bin/intel64/ifort
 FCVERSION : 16.0.1
 BLASLIB   : -mkl
 id        : ccgc

 Nodes     nprocs
 n029         3
 Number of processes for MPI-2 version of Molpro:   nprocs(total)=    4   nprocs(compute)=    3   nprocs(helper)=    1
 ga_uses_ma=false, calling ma_init with nominal heap.
 GA-space will be limited to   8.0 MW (determined by -G option)

 Using customized tuning parameters: mindgm=10; mindgv=16; mindgc=4; mindgr=1; noblas=0; mincuda=1000; minvec=7
 default implementation of scratch files=sf  

 ***,Frequencies for min3
 memory,1000,m
 gthresh,energy=1.0d-10,orbital=1.0d-10,oneint=1.0d-16,twoint=1.0d-16,optgrad=1.0d-6,compress=1.0d-13
 geomtyp=xyz
 
  geometry = {
  12
  arbitrary comment
     C    1.776964391707    0.711398808326   -0.047331391796
     C    0.491811976407   -0.059992870174   -0.195858138425
     C    0.450334595838   -1.536294104051    0.101225781021
     O   -0.560740969492    0.727246358156    0.254257222591
     O   -1.837861720730    0.092262278029   -0.120533731557
     H    2.585291162371    0.211419103145   -0.611997805799
     H    1.660371490085    1.742854286297   -0.427062824643
     H    2.095244961742    0.774096368602    1.017121850536
     H   -0.504910637701   -1.982792232035   -0.218220270462
     H    1.282366104019   -2.046524064976   -0.418010461736
     H    0.561281697834   -1.719997663124    1.193763369112
     H   -1.988067882055    0.550959239043   -0.967544659375
  }
 
 basis=cc-pvdz
 {rhf;maxit,200}
 {uccsd(t);maxit,200}

 Variables initialized (661), CPU time= 0.01 sec
 Commands  initialized (458), CPU time= 0.01 sec, 486 directives.
 Default parameters read. Elapsed time= 0.07 sec

 Checking input...
 Passed
1


                                         ***  PROGRAM SYSTEM MOLPRO  ***
                         Copyright, University College Cardiff Consultants Limited, 2008

                                    Version 2010.1 linked May 16 2016 07:17:05


 **********************************************************************************************************************************
 LABEL *   Frequencies for min3                                                          
 Linux-4.4.3/n029(x86_64) 64 bit mpp version                                             DATE: 07-Mar-20          TIME: 04:26:50  
 **********************************************************************************************************************************

 SHA1:             9e8077add272b0f3cad6f7df79ec5211205f459d
 **********************************************************************************************************************************

 THRESHOLDS:

 ZERO    =  1.00D-12  ONEINT  =  1.00D-16  TWOINT  =  1.00D-16  PREFAC  =  1.00D-14  LOCALI  =  1.00D-09  EORDER  =  1.00D-04
 ENERGY  =  1.00D-10  ETEST   =  0.00D+00  EDENS   =  0.00D+00  THRDEDEF=  1.00D-06  GRADIENT=  1.00D-02  STEP    =  1.00D-03
 ORBITAL =  1.00D-10  CIVEC   =  1.00D-05  COEFF   =  1.00D-04  PRINTCI =  5.00D-02  PUNCHCI =  9.90D+01  OPTGRAD =  1.00D-06
 OPTENERG=  1.00D-06  OPTSTEP =  3.00D-04  THRGRAD =  1.00D-10  COMPRESS=  1.00D-13  VARMIN  =  1.00D-07  VARMAX  =  1.00D-03
 THRDOUB =  0.00D+00  THRDIV  =  1.00D-05  THRRED  =  1.00D-07  THRPSP  =  1.00D+00  THRDC   =  1.00D-10  THRCS   =  1.00D-10
 THRNRM  =  1.00D-08  THREQ   =  0.00D+00  THRDE   =  1.00D+00  THRREF  =  1.00D-05  SPARFAC =  1.00D+00  THRDLP  =  1.00D-07
 THRDIA  =  1.00D-10  THRDLS  =  1.00D-07  THRGPS  =  0.00D+00  THRKEX  =  0.00D+00  THRDIS  =  2.00D-01  THRVAR  =  1.00D-10
 THRLOC  =  1.00D-06  THRGAP  =  1.00D-06  THRLOCT = -1.00D+00  THRGAPT = -1.00D+00  THRORB  =  1.00D-06  THRMLTP =  0.00D+00
 THRCPQCI=  1.00D-10  KEXTA   =  0.00D+00  THRCOARS=  0.00D+00  SYMTOL  =  1.00D-06  GRADTOL =  1.00D-06  THROVL  =  1.00D-08
 THRORTH =  1.00D-08  GRID    =  1.00D-06  GRIDMAX =  1.00D-03  DTMAX   =  0.00D+00

 SETTING GEOMTYP        =    XYZ

 Variable memory set to 1000000000 words,  buffer space   230000 words

 SETTING BASIS          =    CC-PVDZ


 Recomputing integrals since basis changed


 Using spherical harmonics

 Library entry C      S cc-pVDZ              selected for orbital group  1
 Library entry C      P cc-pVDZ              selected for orbital group  1
 Library entry C      D cc-pVDZ              selected for orbital group  1
 Library entry O      S cc-pVDZ              selected for orbital group  2
 Library entry O      P cc-pVDZ              selected for orbital group  2
 Library entry O      D cc-pVDZ              selected for orbital group  2
 Library entry H      S cc-pVDZ              selected for orbital group  3
 Library entry H      P cc-pVDZ              selected for orbital group  3

1PROGRAM * SEWARD (Integral evaluation for generally contracted gaussian basis sets)     Author: Roland Lindh, 1990

 Geometry written to block  1 of record 700


 Point group  C1  



 ATOMIC COORDINATES

 NR  ATOM    CHARGE       X              Y              Z

   1  C       6.00    3.357976046    1.344348918   -0.089443368
   2  C       6.00    0.929389944   -0.113370094   -0.370118242
   3  C       6.00    0.851009054   -2.903175114    0.191289004
   4  O       8.00   -1.059646863    1.374296447    0.480476518
   5  O       8.00   -3.473055320    0.174350438   -0.227775742
   6  H       1.00    4.885492267    0.399524204   -1.156508246
   7  H       1.00    3.137647393    3.293517288   -0.807031779
   8  H       1.00    3.959439156    1.462830136    1.922081740
   9  H       1.00   -0.954142826   -3.746934294   -0.412376547
  10  H       1.00    2.423320737   -3.867370004   -0.789925293
  11  H       1.00    1.060668691   -3.250324530    2.255885833
  12  H       1.00   -3.756903828    1.041162071   -1.828394426

 Bond lengths in Bohr (Angstrom)

 1-2  2.846357946  1-6  2.089168974  1-7  2.088716156  1-8  2.102862081  2-3  2.846811147
     ( 1.506227754)     ( 1.105540607)     ( 1.105300986)     ( 1.112786687)     ( 1.506467577)

  2- 4  2.625439126   3- 9  2.082045859   3-10  2.089166655   3-11  2.104050843   4- 5  2.786760138
       ( 1.389322549)       ( 1.101771217)       ( 1.105539379)       ( 1.113415753)       ( 1.474689952)

  5-12  1.842257462
       ( 0.974880662)

 Bond angles

  1-2-3  120.39278627   1-2-4  108.92100283   2-1-6  109.99063743   2-1-7  110.73454822

  2- 1- 8  111.54434325   2- 3- 9  111.33581207   2- 3-10  109.81212872   2- 3-11  110.63732335

  2- 4- 5  109.25523944   3- 2- 4  118.06926981   4- 5-12   98.72252017   6- 1- 7  108.88601628

  6- 1- 8  107.75392808   7- 1- 8  107.83188166   9- 3-10  109.22654764   9- 3-11  107.69994659

 10- 3-11  108.04238116

 NUCLEAR CHARGE:                   41
 NUMBER OF PRIMITIVE AOS:         184
 NUMBER OF SYMMETRY AOS:          179
 NUMBER OF CONTRACTIONS:          105   ( 105A   )
 NUMBER OF CORE ORBITALS:           5   (   5A   )
 NUMBER OF VALENCE ORBITALS:       27   (  27A   )


 NUCLEAR REPULSION ENERGY  183.22998518


 Eigenvalues of metric

         1 0.345E-02 0.435E-02 0.105E-01 0.141E-01 0.182E-01 0.214E-01 0.331E-01 0.345E-01


 Contracted 2-electron integrals neglected if value below      1.0D-16
 AO integral compression algorithm  1   Integral accuracy      1.0D-16

     127.402 MB (compressed) written to integral file ( 93.4%)

     Node minimum: 34.603 MB, node maximum: 48.234 MB


 NUMBER OF SORTED TWO-ELECTRON INTEGRALS:    5164320.     BUFFER LENGTH:  32768
 NUMBER OF SEGMENTS:   1  SEGMENT LENGTH:    5164320      RECORD LENGTH: 524288

 Memory used in sort:       5.72 MW

 SORT1 READ    17075251. AND WROTE     5135898. INTEGRALS IN     15 RECORDS. CPU TIME:     0.33 SEC, REAL TIME:     0.39 SEC
 SORT2 READ    15396618. AND WROTE    15487395. INTEGRALS IN    552 RECORDS. CPU TIME:     0.11 SEC, REAL TIME:     0.17 SEC

 Node minimum:     5160610.  Node maximum:     5164320. integrals

 OPERATOR DM      FOR CENTER  0  COORDINATES:    0.000000    0.000000    0.000000


 **********************************************************************************************************************************
 DATASETS  * FILE   NREC   LENGTH (MB)   RECORD NAMES
              1      18        3.17       500      610      700      900      950      970     1000      129      960     1100   
                                          VAR    BASINP    GEOM    SYMINP    ZMAT    AOBASIS   BASIS     P2S    ABASIS      S 
                                         1400     1410     1200     1210     1080     1600     1650     1700   
                                           T        V       H0       H01     AOSYM     SMH    MOLCAS    OPER   

 PROGRAMS   *        TOTAL       INT
 CPU TIMES  *         1.76      1.67
 REAL TIME  *         2.09 SEC
 DISK USED  *       311.73 MB      
 GA USED    *         0.00 MB       (max)       0.00 MB       (current)
 **********************************************************************************************************************************

1PROGRAM * RHF-SCF (OPEN SHELL)       Authors: W. Meyer, H.-J. Werner


 NUMBER OF ELECTRONS:      21+   20-    SPACE SYMMETRY=1    SPIN SYMMETRY: Doublet 
 CONVERGENCE THRESHOLDS:    1.00E-10 (Density)    1.00E-11 (Energy)
 MAX. NUMBER OF ITERATIONS:      200
 INTERPOLATION TYPE:            DIIS
 INTERPOLATION STEPS:              2 (START)      1 (STEP)
 LEVEL SHIFTS:                 -0.30 (CLOSED)  0.00 (OPEN) 



 Orbital guess generated from atomic densities. Full valence occupancy:   32

 Molecular orbital dump at record        2100.2

 ITERATION    DDIFF          GRAD             ENERGY        2-EL.EN.            DIPOLE MOMENTS         DIIS
    1      0.000D+00      0.000D+00      -267.17823289    555.836567    0.57040    0.04965   -0.75014    0
    2      0.000D+00      0.617D-02      -267.24891115    555.754564    0.41353   -0.13092   -0.59882    1
    3      0.927D-02      0.214D-02      -267.26109221    555.672997    0.39315   -0.05903   -0.62596    2
    4      0.336D-02      0.912D-03      -267.26470444    555.825098    0.37843   -0.09923   -0.64220    3
    5      0.186D-02      0.364D-03      -267.26527532    555.796434    0.38095   -0.09277   -0.63514    4
    6      0.793D-03      0.110D-03      -267.26535223    555.782686    0.37921   -0.09258   -0.63787    5
    7      0.278D-03      0.513D-04      -267.26537252    555.779676    0.37849   -0.09233   -0.63736    6
    8      0.144D-03      0.273D-04      -267.26537862    555.777725    0.37877   -0.09245   -0.63757    7
    9      0.928D-04      0.115D-04      -267.26537954    555.778046    0.37895   -0.09241   -0.63733    8
   10      0.367D-04      0.502D-05      -267.26537970    555.778657    0.37921   -0.09242   -0.63739    9
   11      0.147D-04      0.197D-05      -267.26537973    555.778498    0.37926   -0.09241   -0.63740    9
   12      0.652D-05      0.672D-06      -267.26537973    555.778633    0.37928   -0.09241   -0.63739    9
   13      0.228D-05      0.227D-06      -267.26537973    555.778548    0.37928   -0.09242   -0.63739    9
   14      0.633D-06      0.760D-07      -267.26537973    555.778557    0.37929   -0.09242   -0.63739    9
   15      0.193D-06      0.302D-07      -267.26537973    555.778553    0.37929   -0.09242   -0.63739    9
   16      0.830D-07      0.146D-07      -267.26537973    555.778555    0.37929   -0.09242   -0.63739    9
   17      0.377D-07      0.757D-08      -267.26537973    555.778555    0.37929   -0.09242   -0.63739    9
   18      0.225D-07      0.343D-08      -267.26537973    555.778555    0.37929   -0.09242   -0.63739    9
   19      0.115D-07      0.134D-08      -267.26537973    555.778555    0.37929   -0.09242   -0.63739    9
   20      0.445D-08      0.571D-09      -267.26537973    555.778555    0.37929   -0.09242   -0.63739    9
   21      0.167D-08      0.288D-09      -267.26537973    555.778555    0.37929   -0.09242   -0.63739    9
   22      0.760D-09      0.163D-09      -267.26537973    555.778555    0.37929   -0.09242   -0.63739    9
   23      0.448D-09      0.800D-10      -267.26537973    555.778555    0.37929   -0.09242   -0.63739    9
   24      0.265D-09      0.319D-10      -267.26537973    555.778555    0.37929   -0.09242   -0.63739    9
   25      0.938D-10      0.130D-10      -267.26537973    555.778555    0.37929   -0.09242   -0.63739    0

 Final alpha occupancy:  21
 Final beta  occupancy:  20

 !RHF STATE 1.1 Energy               -267.265379728688
 Nuclear energy                       183.22998518
 One-electron energy                 -728.38464228
 Two-electron energy                  277.88927738
 Virial quotient                       -1.00155096
 !RHF STATE 1.1 Dipole moment           0.37928736    -0.09241678    -0.63739217
 Dipole moment /Debye                   0.96398916    -0.23488464    -1.61998319

 Orbital energies:

         1.1          2.1          3.1          4.1          5.1          6.1          7.1          8.1          9.1         10.1
    -20.630463   -20.628884   -11.279158   -11.237864   -11.232076    -1.470161    -1.240709    -1.023237    -0.945400    -0.768467

        11.1         12.1         13.1         14.1         15.1         16.1         17.1         18.1         19.1         20.1
     -0.704531    -0.643110    -0.626813    -0.588803    -0.545036    -0.543371    -0.539059    -0.517047    -0.493023    -0.469804

        21.1         22.1         23.1
     -0.352054     0.181233     0.183509


 **********************************************************************************************************************************
 DATASETS  * FILE   NREC   LENGTH (MB)   RECORD NAMES
              1      18        3.17       500      610      700      900      950      970     1000      129      960     1100   
                                          VAR    BASINP    GEOM    SYMINP    ZMAT    AOBASIS   BASIS     P2S    ABASIS      S 
                                         1400     1410     1200     1210     1080     1600     1650     1700   
                                           T        V       H0       H01     AOSYM     SMH    MOLCAS    OPER   

              2       3        0.77       700     1000     2100   
                                         GEOM     BASIS     RHF  

 PROGRAMS   *        TOTAL       RHF       INT
 CPU TIMES  *         3.70      1.93      1.67
 REAL TIME  *         4.20 SEC
 DISK USED  *       328.30 MB      
 SF USED    *         0.04 MB      
 GA USED    *         0.00 MB       (max)       0.00 MB       (current)
 **********************************************************************************************************************************


1PROGRAM * CCSD (Unrestricted open-shell coupled cluster)     Authors: C. Hampel, H.-J. Werner, 1991, M. Deegan, P.J. Knowles, 1992


 Convergence thresholds:  THRVAR = 1.00D-08  THRDEN = 1.00D-10

 CCSD(T)     terms to be evaluated (factor= 1.000)


 Number of core orbitals:           5 (   5 )
 Number of closed-shell orbitals:  15 (  15 )
 Number of active  orbitals:        1 (   1 )
 Number of external orbitals:      84 (  84 )

 Memory could be reduced to 24.91 Mwords without degradation in triples

 Number of N-1 electron functions:              31
 Number of N-2 electron functions:             465
 Number of singly external CSFs:              2635
 Number of doubly external CSFs:           2537250
 Total number of CSFs:                     2539885

 Molecular orbitals read from record     2100.2  Type=RHF/CANONICAL (state 1.1)

 Integral transformation finished. Total CPU:   1.43 sec, npass=  1  Memory used:  12.63 MW

 Starting RMP2 calculation

 ITER.      SQ.NORM     CORR.ENERGY   TOTAL ENERGY   ENERGY CHANGE        DEN1      VAR(S)    VAR(P)  DIIS     TIME
   1      1.24302923    -0.78639329  -268.05177302    -0.78639329    -0.00304940  0.20D-04  0.11D-02  1  1     1.86
   2      1.24567017    -0.78968183  -268.05506156    -0.00328854    -0.00000474  0.54D-06  0.19D-05  2  2     2.23
   3      1.24573570    -0.78972388  -268.05510361    -0.00004205    -0.00000003  0.16D-07  0.68D-08  3  3     2.63
   4      1.24573665    -0.78972388  -268.05510361    -0.00000000    -0.00000000  0.27D-09  0.38D-10  4  4     3.05
   5      1.24573673    -0.78972392  -268.05510365    -0.00000003    -0.00000000  0.25D-11  0.65D-12  5  5     3.51
   6      1.24573675    -0.78972392  -268.05510365    -0.00000001    -0.00000000  0.28D-13  0.86D-14  6  6     3.99
   7      1.24573675    -0.78972392  -268.05510365     0.00000000    -0.00000000  0.47D-15  0.12D-15  6  1     4.47
   8      1.24573675    -0.78972392  -268.05510365     0.00000000    -0.00000000  0.60D-17  0.13D-17  6  2     4.96

 Norm of t1 vector:      0.03894801      S-energy:    -0.00227355      T1 diagnostic:  0.00055007
 Norm of t2 vector:      0.49418600      P-energy:    -0.78745037
                                         Alpha-Beta:  -0.59342267
                                         Alpha-Alpha: -0.10094504
                                         Beta-Beta:   -0.09308266

 Spin contamination <S**2-Sz**2-Sz>     0.00104071
  Reference energy                   -267.265379728687
  RHF-RMP2 correlation energy          -0.789723922131
 !RHF-RMP2 energy                    -268.055103650817

 Starting UCCSD calculation

 ITER.      SQ.NORM     CORR.ENERGY   TOTAL ENERGY   ENERGY CHANGE        DEN1      VAR(S)    VAR(P)  DIIS     TIME
   1      1.26279851    -0.80905993  -268.07443966    -0.80905993    -0.02515563  0.38D-02  0.59D-02  1  1    13.11
   2      1.29157135    -0.83646844  -268.10184817    -0.02740852    -0.00201110  0.22D-03  0.66D-03  2  2    21.23
   3      1.30151259    -0.84096660  -268.10634633    -0.00449816    -0.00032461  0.19D-03  0.56D-04  3  3    29.38
   4      1.30642641    -0.84244375  -268.10782348    -0.00147715    -0.00007210  0.43D-04  0.14D-04  4  4    37.55
   5      1.30915686    -0.84283189  -268.10821162    -0.00038814    -0.00002369  0.19D-04  0.32D-05  5  5    45.78
   6      1.31109711    -0.84303641  -268.10841614    -0.00020452    -0.00000647  0.42D-05  0.12D-05  6  6    54.00
   7      1.31204799    -0.84309528  -268.10847500    -0.00005886    -0.00000209  0.14D-05  0.37D-06  6  2    62.24
   8      1.31249107    -0.84313804  -268.10851777    -0.00004276    -0.00000066  0.45D-06  0.11D-06  6  1    70.47
   9      1.31267738    -0.84314266  -268.10852239    -0.00000462    -0.00000022  0.15D-06  0.35D-07  6  4    78.70
  10      1.31274096    -0.84314560  -268.10852533    -0.00000294    -0.00000005  0.35D-07  0.96D-08  6  3    86.94
  11      1.31277065    -0.84314435  -268.10852408     0.00000125    -0.00000002  0.13D-07  0.28D-08  6  5    95.17
  12      1.31278110    -0.84314409  -268.10852382     0.00000026    -0.00000000  0.26D-08  0.96D-09  6  6   103.40
  13      1.31277995    -0.84314317  -268.10852290     0.00000092    -0.00000000  0.96D-09  0.29D-09  6  2   111.64
  14      1.31277473    -0.84314233  -268.10852206     0.00000085    -0.00000000  0.21D-09  0.68D-10  6  1   119.87
  15      1.31277065    -0.84314174  -268.10852147     0.00000059    -0.00000000  0.78D-10  0.19D-10  6  4   128.12
  16      1.31276746    -0.84314135  -268.10852108     0.00000038    -0.00000000  0.28D-10  0.63D-11  6  3   136.37
  17      1.31276526    -0.84314112  -268.10852084     0.00000024    -0.00000000  0.10D-10  0.24D-11  6  5   144.60
  18      1.31276435    -0.84314106  -268.10852078     0.00000006    -0.00000000  0.41D-11  0.87D-12  6  6   152.83
  19      1.31276374    -0.84314102  -268.10852075     0.00000003    -0.00000000  0.16D-11  0.37D-12  6  2   161.02
  20      1.31276341    -0.84314101  -268.10852074     0.00000001    -0.00000000  0.60D-12  0.13D-12  6  1   169.25
  21      1.31276325    -0.84314100  -268.10852073     0.00000001    -0.00000000  0.28D-12  0.58D-13  6  4   177.46
  22      1.31276313    -0.84314099  -268.10852072     0.00000001    -0.00000000  0.74D-13  0.22D-13  6  3   185.70
  23      1.31276307    -0.84314099  -268.10852072     0.00000000    -0.00000000  0.21D-13  0.63D-14  6  5   193.91
  24      1.31276306    -0.84314099  -268.10852072    -0.00000000    -0.00000000  0.68D-14  0.23D-14  6  6   202.14
  25      1.31276307    -0.84314099  -268.10852072    -0.00000000    -0.00000000  0.21D-14  0.53D-15  6  2   210.38
  26      1.31276307    -0.84314099  -268.10852072    -0.00000000    -0.00000000  0.77D-15  0.15D-15  6  1   218.60
  27      1.31276308    -0.84314099  -268.10852072    -0.00000000    -0.00000000  0.20D-15  0.63D-16  6  3   226.82
  28      1.31276309    -0.84314099  -268.10852072    -0.00000000    -0.00000000  0.30D-16  0.11D-16  6  4   235.06
  29      1.31276309    -0.84314099  -268.10852072    -0.00000000    -0.00000000  0.71D-17  0.29D-17  6  5   243.28
  30      1.31276309    -0.84314099  -268.10852072    -0.00000000    -0.00000000  0.15D-17  0.54D-18  6  6   251.50
  31      1.31276309    -0.84314099  -268.10852072    -0.00000000    -0.00000000  0.36D-18  0.11D-18  6  2   259.71

 Norm of t1 vector:      0.13873985      S-energy:    -0.00282355      T1 diagnostic:  0.01617082
                                                                       D1 diagnostic:  0.06279916
 Norm of t2 vector:      0.54176964      P-energy:    -0.84031744
                                         Alpha-Beta:  -0.66486751
                                         Alpha-Alpha: -0.09147689
                                         Beta-Beta:   -0.08397304

 Spin contamination <S**2-Sz**2-Sz>     0.00217573

 Memory could be reduced to 28.85 Mwords without degradation in triples
 

 RESULTS
 =======

  Reference energy                   -267.265379728687
  UCCSD singles energy                 -0.002823553285
  UCCSD pair energy                    -0.840317438982
  UCCSD correlation energy             -0.843140992267
  Triples (T) contribution             -0.024975334337
  Total correlation energy             -0.868116326604
 
  RHF-UCCSD energy                   -268.108520720954
  RHF-UCCSD[T] energy                -268.134831656050
  RHF-UCCSD-T energy                 -268.133074745455
 !RHF-UCCSD(T) energy                -268.133496055291

 Program statistics:

 Available memory in ccsd:               999997692
 Min. memory needed in ccsd:               7337057
 Max. memory used in ccsd:                10523002
 Max. memory used in cckext:              10867977 (31 integral passes)
 Max. memory used in cckint:              12633073 ( 1 integral passes)



 **********************************************************************************************************************************
 DATASETS  * FILE   NREC   LENGTH (MB)   RECORD NAMES
              1      18        3.17       500      610      700      900      950      970     1000      129      960     1100   
                                          VAR    BASINP    GEOM    SYMINP    ZMAT    AOBASIS   BASIS     P2S    ABASIS      S 
                                         1400     1410     1200     1210     1080     1600     1650     1700   
                                           T        V       H0       H01     AOSYM     SMH    MOLCAS    OPER   

              2       3        0.77       700     1000     2100   
                                         GEOM     BASIS     RHF  

 PROGRAMS   *        TOTAL  UCCSD(T)       RHF       INT
 CPU TIMES  *       329.81    326.11      1.93      1.67
 REAL TIME  *       344.50 SEC
 DISK USED  *         1.29 GB      
 SF USED    *       553.73 MB      
 GA USED    *         0.00 MB       (max)       0.00 MB       (current)
 **********************************************************************************************************************************

        UCCSD(T)        RHF-SCF 
   -268.13349606   -267.26537973
 **********************************************************************************************************************************
 Variable memory released
