
 Primary working directories    : /tmp/320938.870.gen4.q
 Secondary working directories  : /tmp/320938.870.gen4.q
 Wavefunction directory         : /home/vulcan/mel64643/wfu/
 Main file repository           : /tmp/320938.870.gen4.q/

 ARCHNAME  : Linux/x86_64
 FC        : /opt/intel/compilers_and_libraries_2016.1.150/linux/bin/intel64/ifort
 FCVERSION : 16.0.1
 BLASLIB   : -mkl
 id        : ccgc

 Nodes     nprocs
 n024         3
 Number of processes for MPI-2 version of Molpro:   nprocs(total)=    4   nprocs(compute)=    3   nprocs(helper)=    1
 ga_uses_ma=false, calling ma_init with nominal heap.
 GA-space will be limited to   8.0 MW (determined by -G option)

 Using customized tuning parameters: mindgm=10; mindgv=16; mindgc=4; mindgr=1; noblas=0; mincuda=1000; minvec=7
 default implementation of scratch files=sf  

 ***,Frequencies for min3
 memory,1000,m
 gthresh,energy=1.0d-10,orbital=1.0d-10,oneint=1.0d-16,twoint=1.0d-16,optgrad=1.0d-6,compress=1.0d-13
 geomtyp=xyz
 
  geometry = {
  12
  arbitrary comment
     C    1.776964391707    0.711398808326   -0.047331391796
     C    0.491811976407   -0.059992870174   -0.196493901896
     C    0.450332819107   -1.536294019674    0.101417522804
     O   -0.560767745493    0.727234937526    0.254453964104
     O   -1.837477118416    0.092236321120   -0.120526979837
     H    2.584524015223    0.211615056971   -0.611457198580
     H    1.659516304773    1.742998612451   -0.426535017537
     H    2.094259721493    0.774167727112    1.017639853162
     H   -0.503455609187   -1.982682655687   -0.219867919279
     H    1.280053793995   -2.047594394900   -0.417335400668
     H    0.560392623186   -1.719028286445    1.194659156229
     H   -1.989371761212    0.551131181456   -0.966996970831
  }
 
 basis=cc-pvdz
 {rhf;maxit,200}
 {uccsd(t);maxit,200}

 Variables initialized (661), CPU time= 0.00 sec
 Commands  initialized (458), CPU time= 0.01 sec, 486 directives.
 Default parameters read. Elapsed time= 0.06 sec

 Checking input...
 Passed
1


                                         ***  PROGRAM SYSTEM MOLPRO  ***
                         Copyright, University College Cardiff Consultants Limited, 2008

                                    Version 2010.1 linked May 16 2016 07:17:05


 **********************************************************************************************************************************
 LABEL *   Frequencies for min3                                                          
 Linux-4.4.3/n024(x86_64) 64 bit mpp version                                             DATE: 07-Mar-20          TIME: 06:06:05  
 **********************************************************************************************************************************

 SHA1:             9e8077add272b0f3cad6f7df79ec5211205f459d
 **********************************************************************************************************************************

 THRESHOLDS:

 ZERO    =  1.00D-12  ONEINT  =  1.00D-16  TWOINT  =  1.00D-16  PREFAC  =  1.00D-14  LOCALI  =  1.00D-09  EORDER  =  1.00D-04
 ENERGY  =  1.00D-10  ETEST   =  0.00D+00  EDENS   =  0.00D+00  THRDEDEF=  1.00D-06  GRADIENT=  1.00D-02  STEP    =  1.00D-03
 ORBITAL =  1.00D-10  CIVEC   =  1.00D-05  COEFF   =  1.00D-04  PRINTCI =  5.00D-02  PUNCHCI =  9.90D+01  OPTGRAD =  1.00D-06
 OPTENERG=  1.00D-06  OPTSTEP =  3.00D-04  THRGRAD =  1.00D-10  COMPRESS=  1.00D-13  VARMIN  =  1.00D-07  VARMAX  =  1.00D-03
 THRDOUB =  0.00D+00  THRDIV  =  1.00D-05  THRRED  =  1.00D-07  THRPSP  =  1.00D+00  THRDC   =  1.00D-10  THRCS   =  1.00D-10
 THRNRM  =  1.00D-08  THREQ   =  0.00D+00  THRDE   =  1.00D+00  THRREF  =  1.00D-05  SPARFAC =  1.00D+00  THRDLP  =  1.00D-07
 THRDIA  =  1.00D-10  THRDLS  =  1.00D-07  THRGPS  =  0.00D+00  THRKEX  =  0.00D+00  THRDIS  =  2.00D-01  THRVAR  =  1.00D-10
 THRLOC  =  1.00D-06  THRGAP  =  1.00D-06  THRLOCT = -1.00D+00  THRGAPT = -1.00D+00  THRORB  =  1.00D-06  THRMLTP =  0.00D+00
 THRCPQCI=  1.00D-10  KEXTA   =  0.00D+00  THRCOARS=  0.00D+00  SYMTOL  =  1.00D-06  GRADTOL =  1.00D-06  THROVL  =  1.00D-08
 THRORTH =  1.00D-08  GRID    =  1.00D-06  GRIDMAX =  1.00D-03  DTMAX   =  0.00D+00

 SETTING GEOMTYP        =    XYZ

 Variable memory set to 1000000000 words,  buffer space   230000 words

 SETTING BASIS          =    CC-PVDZ


 Recomputing integrals since basis changed


 Using spherical harmonics

 Library entry C      S cc-pVDZ              selected for orbital group  1
 Library entry C      P cc-pVDZ              selected for orbital group  1
 Library entry C      D cc-pVDZ              selected for orbital group  1
 Library entry O      S cc-pVDZ              selected for orbital group  2
 Library entry O      P cc-pVDZ              selected for orbital group  2
 Library entry O      D cc-pVDZ              selected for orbital group  2
 Library entry H      S cc-pVDZ              selected for orbital group  3
 Library entry H      P cc-pVDZ              selected for orbital group  3

1PROGRAM * SEWARD (Integral evaluation for generally contracted gaussian basis sets)     Author: Roland Lindh, 1990

 Geometry written to block  1 of record 700


 Point group  C1  



 ATOMIC COORDINATES

 NR  ATOM    CHARGE       X              Y              Z

   1  C       6.00    3.357976046    1.344348918   -0.089443368
   2  C       6.00    0.929389944   -0.113370094   -0.371319661
   3  C       6.00    0.851005696   -2.903174955    0.191651343
   4  O       8.00   -1.059697462    1.374274865    0.480848305
   5  O       8.00   -3.472328527    0.174301386   -0.227762983
   6  H       1.00    4.884042569    0.399894503   -1.155486646
   7  H       1.00    3.136031327    3.293790025   -0.806034369
   8  H       1.00    3.957577322    1.462964984    1.923060623
   9  H       1.00   -0.951393221   -3.746727225   -0.415490153
  10  H       1.00    2.418951104   -3.869392635   -0.788649612
  11  H       1.00    1.058988584   -3.248492674    2.257578626
  12  H       1.00   -3.759367802    1.041486995   -1.827359445

 Bond lengths in Bohr (Angstrom)

 1-2  2.846476668  1-6  2.087419806  1-7  2.088799356  1-8  2.103274536  2-3  2.847119878
     ( 1.506290578)     ( 1.104614987)     ( 1.105345013)     ( 1.113004949)     ( 1.506630951)

  2- 4  2.625975338   3- 9  2.080587197   3-10  2.086389075   3-11  2.104888773   4- 5  2.786190044
       ( 1.389606300)       ( 1.100999326)       ( 1.104069547)       ( 1.113859166)       ( 1.474388271)

  5-12  1.842039974
       ( 0.974765572)

 Bond angles

  1-2-3  120.37866573   1-2-4  108.90555081   2-1-6  109.96644771   2-1-7  110.69045623

  2- 1- 8  111.52216947   2- 3- 9  111.31078027   2- 3-10  109.88823464   2- 3-11  110.61616032

  2- 4- 5  109.23153022   3- 2- 4  118.03986083   4- 5-12   98.80279153   6- 1- 7  108.94998941

  6- 1- 8  107.80387268   7- 1- 8  107.81326921   9- 3-10  109.03578372   9- 3-11  107.78792681

 10- 3-11  108.11510894

 NUCLEAR CHARGE:                   41
 NUMBER OF PRIMITIVE AOS:         184
 NUMBER OF SYMMETRY AOS:          179
 NUMBER OF CONTRACTIONS:          105   ( 105A   )
 NUMBER OF CORE ORBITALS:           5   (   5A   )
 NUMBER OF VALENCE ORBITALS:       27   (  27A   )


 NUCLEAR REPULSION ENERGY  183.24250481


 Eigenvalues of metric

         1 0.345E-02 0.435E-02 0.105E-01 0.141E-01 0.182E-01 0.214E-01 0.331E-01 0.345E-01


 Contracted 2-electron integrals neglected if value below      1.0D-16
 AO integral compression algorithm  1   Integral accuracy      1.0D-16

     127.664 MB (compressed) written to integral file ( 93.2%)

     Node minimum: 30.933 MB, node maximum: 50.856 MB


 NUMBER OF SORTED TWO-ELECTRON INTEGRALS:    5164320.     BUFFER LENGTH:  32768
 NUMBER OF SEGMENTS:   1  SEGMENT LENGTH:    5164320      RECORD LENGTH: 524288

 Memory used in sort:       5.72 MW

 SORT1 READ    17075548. AND WROTE     5135977. INTEGRALS IN     15 RECORDS. CPU TIME:     0.34 SEC, REAL TIME:     0.38 SEC
 SORT2 READ    15396841. AND WROTE    15487395. INTEGRALS IN    582 RECORDS. CPU TIME:     0.11 SEC, REAL TIME:     0.16 SEC

 Node minimum:     5160610.  Node maximum:     5164320. integrals

 OPERATOR DM      FOR CENTER  0  COORDINATES:    0.000000    0.000000    0.000000


 **********************************************************************************************************************************
 DATASETS  * FILE   NREC   LENGTH (MB)   RECORD NAMES
              1      18        3.17       500      610      700      900      950      970     1000      129      960     1100   
                                          VAR    BASINP    GEOM    SYMINP    ZMAT    AOBASIS   BASIS     P2S    ABASIS      S 
                                         1400     1410     1200     1210     1080     1600     1650     1700   
                                           T        V       H0       H01     AOSYM     SMH    MOLCAS    OPER   

 PROGRAMS   *        TOTAL       INT
 CPU TIMES  *         1.48      1.42
 REAL TIME  *         1.80 SEC
 DISK USED  *       315.67 MB      
 GA USED    *         0.00 MB       (max)       0.00 MB       (current)
 **********************************************************************************************************************************

1PROGRAM * RHF-SCF (OPEN SHELL)       Authors: W. Meyer, H.-J. Werner


 NUMBER OF ELECTRONS:      21+   20-    SPACE SYMMETRY=1    SPIN SYMMETRY: Doublet 
 CONVERGENCE THRESHOLDS:    1.00E-10 (Density)    1.00E-11 (Energy)
 MAX. NUMBER OF ITERATIONS:      200
 INTERPOLATION TYPE:            DIIS
 INTERPOLATION STEPS:              2 (START)      1 (STEP)
 LEVEL SHIFTS:                 -0.30 (CLOSED)  0.00 (OPEN) 



 Orbital guess generated from atomic densities. Full valence occupancy:   32

 Molecular orbital dump at record        2100.2

 ITERATION    DDIFF          GRAD             ENERGY        2-EL.EN.            DIPOLE MOMENTS         DIIS
    1      0.000D+00      0.000D+00      -267.17834076    555.859133    0.56669    0.05083   -0.74910    0
    2      0.000D+00      0.617D-02      -267.24903330    555.780702    0.41248   -0.13099   -0.59913    1
    3      0.928D-02      0.214D-02      -267.26119873    555.698287    0.39232   -0.05926   -0.62635    2
    4      0.336D-02      0.912D-03      -267.26479922    555.850600    0.37797   -0.09954   -0.64275    3
    5      0.186D-02      0.363D-03      -267.26536624    555.821991    0.38057   -0.09311   -0.63572    4
    6      0.791D-03      0.110D-03      -267.26544220    555.808189    0.37886   -0.09292   -0.63845    5
    7      0.277D-03      0.509D-04      -267.26546216    555.805207    0.37817   -0.09267   -0.63794    6
    8      0.143D-03      0.271D-04      -267.26546817    555.803247    0.37845   -0.09279   -0.63814    7
    9      0.920D-04      0.115D-04      -267.26546908    555.803566    0.37863   -0.09275   -0.63790    8
   10      0.364D-04      0.499D-05      -267.26546924    555.804175    0.37889   -0.09276   -0.63797    9
   11      0.146D-04      0.196D-05      -267.26546926    555.804017    0.37894   -0.09275   -0.63797    9
   12      0.648D-05      0.669D-06      -267.26546926    555.804151    0.37896   -0.09275   -0.63797    9
   13      0.227D-05      0.226D-06      -267.26546926    555.804067    0.37896   -0.09275   -0.63797    9
   14      0.632D-06      0.757D-07      -267.26546926    555.804076    0.37896   -0.09276   -0.63797    9
   15      0.192D-06      0.300D-07      -267.26546926    555.804072    0.37897   -0.09276   -0.63797    9
   16      0.825D-07      0.145D-07      -267.26546926    555.804074    0.37897   -0.09276   -0.63797    9
   17      0.375D-07      0.752D-08      -267.26546926    555.804074    0.37897   -0.09276   -0.63797    9
   18      0.223D-07      0.341D-08      -267.26546926    555.804074    0.37897   -0.09276   -0.63797    9
   19      0.114D-07      0.133D-08      -267.26546926    555.804074    0.37897   -0.09276   -0.63797    9
   20      0.442D-08      0.565D-09      -267.26546926    555.804074    0.37897   -0.09276   -0.63797    9
   21      0.165D-08      0.285D-09      -267.26546926    555.804074    0.37897   -0.09276   -0.63797    9
   22      0.751D-09      0.161D-09      -267.26546926    555.804074    0.37897   -0.09276   -0.63797    9
   23      0.445D-09      0.793D-10      -267.26546926    555.804074    0.37897   -0.09276   -0.63797    9
   24      0.262D-09      0.315D-10      -267.26546926    555.804074    0.37897   -0.09276   -0.63797    9
   25      0.927D-10      0.128D-10      -267.26546926    555.804074    0.37897   -0.09276   -0.63797    0

 Final alpha occupancy:  21
 Final beta  occupancy:  20

 !RHF STATE 1.1 Energy               -267.265469264914
 Nuclear energy                       183.24250481
 One-electron energy                 -728.41001094
 Two-electron energy                  277.90203686
 Virial quotient                       -1.00153917
 !RHF STATE 1.1 Dipole moment           0.37896674    -0.09275563    -0.63796692
 Dipole moment /Debye                   0.96317429    -0.23574584    -1.62144397

 Orbital energies:

         1.1          2.1          3.1          4.1          5.1          6.1          7.1          8.1          9.1         10.1
    -20.630436   -20.628760   -11.279191   -11.237772   -11.231873    -1.470175    -1.240585    -1.023285    -0.945508    -0.768510

        11.1         12.1         13.1         14.1         15.1         16.1         17.1         18.1         19.1         20.1
     -0.704570    -0.643031    -0.626804    -0.588837    -0.545185    -0.543443    -0.539268    -0.516936    -0.492883    -0.469789

        21.1         22.1         23.1
     -0.352254     0.181313     0.183601


 **********************************************************************************************************************************
 DATASETS  * FILE   NREC   LENGTH (MB)   RECORD NAMES
              1      18        3.17       500      610      700      900      950      970     1000      129      960     1100   
                                          VAR    BASINP    GEOM    SYMINP    ZMAT    AOBASIS   BASIS     P2S    ABASIS      S 
                                         1400     1410     1200     1210     1080     1600     1650     1700   
                                           T        V       H0       H01     AOSYM     SMH    MOLCAS    OPER   

              2       3        0.77       700     1000     2100   
                                         GEOM     BASIS     RHF  

 PROGRAMS   *        TOTAL       RHF       INT
 CPU TIMES  *         3.47      1.98      1.42
 REAL TIME  *         3.98 SEC
 DISK USED  *       332.24 MB      
 SF USED    *         0.04 MB      
 GA USED    *         0.00 MB       (max)       0.00 MB       (current)
 **********************************************************************************************************************************


1PROGRAM * CCSD (Unrestricted open-shell coupled cluster)     Authors: C. Hampel, H.-J. Werner, 1991, M. Deegan, P.J. Knowles, 1992


 Convergence thresholds:  THRVAR = 1.00D-08  THRDEN = 1.00D-10

 CCSD(T)     terms to be evaluated (factor= 1.000)


 Number of core orbitals:           5 (   5 )
 Number of closed-shell orbitals:  15 (  15 )
 Number of active  orbitals:        1 (   1 )
 Number of external orbitals:      84 (  84 )

 Memory could be reduced to 24.91 Mwords without degradation in triples

 Number of N-1 electron functions:              31
 Number of N-2 electron functions:             465
 Number of singly external CSFs:              2635
 Number of doubly external CSFs:           2537250
 Total number of CSFs:                     2539885

 Molecular orbitals read from record     2100.2  Type=RHF/CANONICAL (state 1.1)

 Integral transformation finished. Total CPU:   1.62 sec, npass=  1  Memory used:  12.63 MW

 Starting RMP2 calculation

 ITER.      SQ.NORM     CORR.ENERGY   TOTAL ENERGY   ENERGY CHANGE        DEN1      VAR(S)    VAR(P)  DIIS     TIME
   1      1.24296003    -0.78631432  -268.05178358    -0.78631432    -0.00304834  0.20D-04  0.11D-02  1  1     2.10
   2      1.24559934    -0.78960169  -268.05507096    -0.00328737    -0.00000474  0.54D-06  0.19D-05  2  2     2.52
   3      1.24566480    -0.78964371  -268.05511297    -0.00004202    -0.00000003  0.16D-07  0.68D-08  3  3     2.98
   4      1.24566575    -0.78964371  -268.05511297    -0.00000000    -0.00000000  0.27D-09  0.38D-10  4  4     3.46
   5      1.24566584    -0.78964374  -268.05511301    -0.00000003    -0.00000000  0.25D-11  0.65D-12  5  5     3.97
   6      1.24566585    -0.78964375  -268.05511301    -0.00000001    -0.00000000  0.28D-13  0.86D-14  6  6     4.51
   7      1.24566585    -0.78964375  -268.05511301     0.00000000    -0.00000000  0.47D-15  0.12D-15  6  1     5.06
   8      1.24566585    -0.78964375  -268.05511301     0.00000000    -0.00000000  0.59D-17  0.13D-17  6  2     5.61

 Norm of t1 vector:      0.03892515      S-energy:    -0.00227110      T1 diagnostic:  0.00055007
 Norm of t2 vector:      0.49411606      P-energy:    -0.78737264
                                         Alpha-Beta:  -0.59336080
                                         Alpha-Alpha: -0.10093727
                                         Beta-Beta:   -0.09307458

 Spin contamination <S**2-Sz**2-Sz>     0.00104016
  Reference energy                   -267.265469264912
  RHF-RMP2 correlation energy          -0.789643747696
 !RHF-RMP2 energy                    -268.055113012608

 Starting UCCSD calculation

 ITER.      SQ.NORM     CORR.ENERGY   TOTAL ENERGY   ENERGY CHANGE        DEN1      VAR(S)    VAR(P)  DIIS     TIME
   1      1.26273053    -0.80899456  -268.07446383    -0.80899456    -0.02514640  0.38D-02  0.59D-02  1  1    15.25
   2      1.29148624    -0.83639422  -268.10186349    -0.02739966    -0.00200933  0.22D-03  0.66D-03  2  2    24.29
   3      1.30141711    -0.84088837  -268.10635764    -0.00449415    -0.00032437  0.19D-03  0.56D-04  3  3    31.04
   4      1.30632515    -0.84236417  -268.10783344    -0.00147580    -0.00007202  0.43D-04  0.14D-04  4  4    37.90
   5      1.30905274    -0.84275203  -268.10822129    -0.00038785    -0.00002364  0.19D-04  0.32D-05  5  5    44.70
   6      1.31098931    -0.84295628  -268.10842555    -0.00020426    -0.00000644  0.42D-05  0.12D-05  6  6    51.53
   7      1.31193672    -0.84301498  -268.10848425    -0.00005870    -0.00000207  0.14D-05  0.37D-06  6  2    58.35
   8      1.31237694    -0.84305757  -268.10852683    -0.00004258    -0.00000065  0.44D-06  0.11D-06  6  1    65.22
   9      1.31256137    -0.84306212  -268.10853138    -0.00000455    -0.00000022  0.15D-06  0.35D-07  6  4    72.04
  10      1.31262419    -0.84306503  -268.10853430    -0.00000291    -0.00000005  0.34D-07  0.95D-08  6  3    78.89
  11      1.31265351    -0.84306377  -268.10853303     0.00000126    -0.00000002  0.13D-07  0.28D-08  6  5    85.75
  12      1.31266382    -0.84306351  -268.10853277     0.00000026    -0.00000000  0.26D-08  0.95D-09  6  6    92.57
  13      1.31266267    -0.84306259  -268.10853186     0.00000091    -0.00000000  0.96D-09  0.28D-09  6  2    99.41
  14      1.31265747    -0.84306175  -268.10853102     0.00000084    -0.00000000  0.21D-09  0.67D-10  6  1   106.23
  15      1.31265341    -0.84306117  -268.10853043     0.00000058    -0.00000000  0.78D-10  0.19D-10  6  4   113.04
  16      1.31265023    -0.84306078  -268.10853005     0.00000038    -0.00000000  0.28D-10  0.62D-11  6  3   119.89
  17      1.31264804    -0.84306055  -268.10852981     0.00000024    -0.00000000  0.10D-10  0.24D-11  6  5   126.73
  18      1.31264714    -0.84306049  -268.10852975     0.00000006    -0.00000000  0.40D-11  0.86D-12  6  6   133.55
  19      1.31264653    -0.84306045  -268.10852972     0.00000003    -0.00000000  0.16D-11  0.37D-12  6  2   140.36
  20      1.31264621    -0.84306044  -268.10852971     0.00000001    -0.00000000  0.59D-12  0.13D-12  6  1   147.18
  21      1.31264605    -0.84306043  -268.10852969     0.00000001    -0.00000000  0.28D-12  0.57D-13  6  4   153.97
  22      1.31264593    -0.84306042  -268.10852969     0.00000001    -0.00000000  0.73D-13  0.21D-13  6  3   160.78
  23      1.31264587    -0.84306042  -268.10852968     0.00000000    -0.00000000  0.21D-13  0.62D-14  6  5   167.58
  24      1.31264587    -0.84306042  -268.10852968    -0.00000000    -0.00000000  0.67D-14  0.22D-14  6  6   174.39
  25      1.31264587    -0.84306042  -268.10852969    -0.00000000    -0.00000000  0.21D-14  0.52D-15  6  2   181.25
  26      1.31264588    -0.84306042  -268.10852969    -0.00000000    -0.00000000  0.76D-15  0.15D-15  6  1   188.08
  27      1.31264589    -0.84306042  -268.10852969    -0.00000000    -0.00000000  0.20D-15  0.62D-16  6  3   194.94
  28      1.31264589    -0.84306042  -268.10852969    -0.00000000    -0.00000000  0.29D-16  0.11D-16  6  4   201.77
  29      1.31264590    -0.84306042  -268.10852969    -0.00000000    -0.00000000  0.70D-17  0.29D-17  6  5   208.64
  30      1.31264590    -0.84306042  -268.10852969    -0.00000000    -0.00000000  0.15D-17  0.53D-18  6  6   215.49
  31      1.31264590    -0.84306042  -268.10852969    -0.00000000    -0.00000000  0.35D-18  0.10D-18  6  2   222.36

 Norm of t1 vector:      0.13865810      S-energy:    -0.00282039      T1 diagnostic:  0.01616225
                                                                       D1 diagnostic:  0.06279614
 Norm of t2 vector:      0.54168241      P-energy:    -0.84024003
                                         Alpha-Beta:  -0.66479484
                                         Alpha-Alpha: -0.09147492
                                         Beta-Beta:   -0.08397028

 Spin contamination <S**2-Sz**2-Sz>     0.00216834

 Memory could be reduced to 28.85 Mwords without degradation in triples
 

 RESULTS
 =======

  Reference energy                   -267.265469264912
  UCCSD singles energy                 -0.002820390502
  UCCSD pair energy                    -0.840240032078
  UCCSD correlation energy             -0.843060422579
  Triples (T) contribution             -0.024964908035
  Total correlation energy             -0.868025330615
 
  RHF-UCCSD energy                   -268.108529687491
  RHF-UCCSD[T] energy                -268.134829474844
  RHF-UCCSD-T energy                 -268.133073277777
 !RHF-UCCSD(T) energy                -268.133494595527

 Program statistics:

 Available memory in ccsd:               999997692
 Min. memory needed in ccsd:               7337057
 Max. memory used in ccsd:                10523002
 Max. memory used in cckext:              10867977 (31 integral passes)
 Max. memory used in cckint:              12633073 ( 1 integral passes)



 **********************************************************************************************************************************
 DATASETS  * FILE   NREC   LENGTH (MB)   RECORD NAMES
              1      18        3.17       500      610      700      900      950      970     1000      129      960     1100   
                                          VAR    BASINP    GEOM    SYMINP    ZMAT    AOBASIS   BASIS     P2S    ABASIS      S 
                                         1400     1410     1200     1210     1080     1600     1650     1700   
                                           T        V       H0       H01     AOSYM     SMH    MOLCAS    OPER   

              2       3        0.77       700     1000     2100   
                                         GEOM     BASIS     RHF  

 PROGRAMS   *        TOTAL  UCCSD(T)       RHF       INT
 CPU TIMES  *       287.00    283.51      1.98      1.42
 REAL TIME  *       304.49 SEC
 DISK USED  *         1.30 GB      
 SF USED    *       553.73 MB      
 GA USED    *         0.00 MB       (max)       0.00 MB       (current)
 **********************************************************************************************************************************

        UCCSD(T)        RHF-SCF 
   -268.13349460   -267.26546926
 **********************************************************************************************************************************
 Variable memory released
