
 Primary working directories    : /tmp/320938.521.gen4.q
 Secondary working directories  : /tmp/320938.521.gen4.q
 Wavefunction directory         : /home/vulcan/mel64643/wfu/
 Main file repository           : /tmp/320938.521.gen4.q/

 ARCHNAME  : Linux/x86_64
 FC        : /opt/intel/compilers_and_libraries_2016.1.150/linux/bin/intel64/ifort
 FCVERSION : 16.0.1
 BLASLIB   : -mkl
 id        : ccgc

 Nodes     nprocs
 n051         3
 Number of processes for MPI-2 version of Molpro:   nprocs(total)=    4   nprocs(compute)=    3   nprocs(helper)=    1
 ga_uses_ma=false, calling ma_init with nominal heap.
 GA-space will be limited to   8.0 MW (determined by -G option)

 Using customized tuning parameters: mindgm=10; mindgv=16; mindgc=4; mindgr=1; noblas=0; mincuda=1000; minvec=7
 default implementation of scratch files=sf  

 ***,Frequencies for min3
 memory,1000,m
 gthresh,energy=1.0d-10,orbital=1.0d-10,oneint=1.0d-16,twoint=1.0d-16,optgrad=1.0d-6,compress=1.0d-13
 geomtyp=xyz
 
  geometry = {
  12
  arbitrary comment
     C    1.776964391707    0.711398808326   -0.047331391796
     C    0.491811976407   -0.059992870174   -0.196493901896
     C    0.450332819107   -1.536294019674    0.101417522804
     O   -0.560767745493    0.727234937526    0.254453964104
     O   -1.837840335593    0.092269037726   -0.120531795196
     H    2.585373063107    0.211465914126   -0.611440883996
     H    1.660426393907    1.742887987326   -0.424680639820
     H    2.095490300884    0.774278017338    1.017310948290
     H   -0.505423936496   -1.982850109059   -0.219025447112
     H    1.281082542706   -2.048427563654   -0.418069925419
     H    0.562994850571   -1.717595970723    1.194166530296
     H   -1.988259606230    0.550329729328   -0.968077656509
  }
 
 basis=cc-pvdz
 {rhf;maxit,200}
 {uccsd(t);maxit,200}

 Variables initialized (661), CPU time= 0.00 sec
 Commands  initialized (458), CPU time= 0.00 sec, 486 directives.
 Default parameters read. Elapsed time= 0.06 sec

 Checking input...
 Passed
1


                                         ***  PROGRAM SYSTEM MOLPRO  ***
                         Copyright, University College Cardiff Consultants Limited, 2008

                                    Version 2010.1 linked May 16 2016 07:17:05


 **********************************************************************************************************************************
 LABEL *   Frequencies for min3                                                          
 Linux-4.4.3/n051(x86_64) 64 bit mpp version                                             DATE: 07-Mar-20          TIME: 04:02:05  
 **********************************************************************************************************************************

 SHA1:             9e8077add272b0f3cad6f7df79ec5211205f459d
 **********************************************************************************************************************************

 THRESHOLDS:

 ZERO    =  1.00D-12  ONEINT  =  1.00D-16  TWOINT  =  1.00D-16  PREFAC  =  1.00D-14  LOCALI  =  1.00D-09  EORDER  =  1.00D-04
 ENERGY  =  1.00D-10  ETEST   =  0.00D+00  EDENS   =  0.00D+00  THRDEDEF=  1.00D-06  GRADIENT=  1.00D-02  STEP    =  1.00D-03
 ORBITAL =  1.00D-10  CIVEC   =  1.00D-05  COEFF   =  1.00D-04  PRINTCI =  5.00D-02  PUNCHCI =  9.90D+01  OPTGRAD =  1.00D-06
 OPTENERG=  1.00D-06  OPTSTEP =  3.00D-04  THRGRAD =  1.00D-10  COMPRESS=  1.00D-13  VARMIN  =  1.00D-07  VARMAX  =  1.00D-03
 THRDOUB =  0.00D+00  THRDIV  =  1.00D-05  THRRED  =  1.00D-07  THRPSP  =  1.00D+00  THRDC   =  1.00D-10  THRCS   =  1.00D-10
 THRNRM  =  1.00D-08  THREQ   =  0.00D+00  THRDE   =  1.00D+00  THRREF  =  1.00D-05  SPARFAC =  1.00D+00  THRDLP  =  1.00D-07
 THRDIA  =  1.00D-10  THRDLS  =  1.00D-07  THRGPS  =  0.00D+00  THRKEX  =  0.00D+00  THRDIS  =  2.00D-01  THRVAR  =  1.00D-10
 THRLOC  =  1.00D-06  THRGAP  =  1.00D-06  THRLOCT = -1.00D+00  THRGAPT = -1.00D+00  THRORB  =  1.00D-06  THRMLTP =  0.00D+00
 THRCPQCI=  1.00D-10  KEXTA   =  0.00D+00  THRCOARS=  0.00D+00  SYMTOL  =  1.00D-06  GRADTOL =  1.00D-06  THROVL  =  1.00D-08
 THRORTH =  1.00D-08  GRID    =  1.00D-06  GRIDMAX =  1.00D-03  DTMAX   =  0.00D+00

 SETTING GEOMTYP        =    XYZ

 Variable memory set to 1000000000 words,  buffer space   230000 words

 SETTING BASIS          =    CC-PVDZ


 Recomputing integrals since basis changed


 Using spherical harmonics

 Library entry C      S cc-pVDZ              selected for orbital group  1
 Library entry C      P cc-pVDZ              selected for orbital group  1
 Library entry C      D cc-pVDZ              selected for orbital group  1
 Library entry O      S cc-pVDZ              selected for orbital group  2
 Library entry O      P cc-pVDZ              selected for orbital group  2
 Library entry O      D cc-pVDZ              selected for orbital group  2
 Library entry H      S cc-pVDZ              selected for orbital group  3
 Library entry H      P cc-pVDZ              selected for orbital group  3

1PROGRAM * SEWARD (Integral evaluation for generally contracted gaussian basis sets)     Author: Roland Lindh, 1990

 Geometry written to block  1 of record 700


 Point group  C1  



 ATOMIC COORDINATES

 NR  ATOM    CHARGE       X              Y              Z

   1  C       6.00    3.357976046    1.344348918   -0.089443368
   2  C       6.00    0.929389944   -0.113370094   -0.371319661
   3  C       6.00    0.851005696   -2.903174955    0.191651343
   4  O       8.00   -1.059697462    1.374274865    0.480848305
   5  O       8.00   -3.473014908    0.174363212   -0.227772083
   6  H       1.00    4.885647037    0.399612664   -1.155455816
   7  H       1.00    3.137751146    3.293580974   -0.802530103
   8  H       1.00    3.959902780    1.463173402    1.922439083
   9  H       1.00   -0.955112820   -3.747043666   -0.413898111
  10  H       1.00    2.420895157   -3.870967095   -0.790037663
  11  H       1.00    1.063906081   -3.245785989    2.256647698
  12  H       1.00   -3.757266134    1.039972470   -1.829401645

 Bond lengths in Bohr (Angstrom)

 1-2  2.846476668  1-6  2.088704811  1-7  2.087222390  1-8  2.103355901  2-3  2.847119878
     ( 1.506290578)     ( 1.105294982)     ( 1.104510519)     ( 1.113048005)     ( 1.506630951)

  2- 4  2.625975338   3- 9  2.083475135   3-10  2.089231402   3-11  2.104024439   4- 5  2.786760112
       ( 1.389606300)       ( 1.102527557)       ( 1.105573642)       ( 1.113401780)       ( 1.474689938)

  5-12  1.842632736
       ( 0.975079249)

 Bond angles

  1-2-3  120.37866573   1-2-4  108.90555081   2-1-6  109.98947225   2-1-7  110.75691756

  2- 1- 8  111.58072717   2- 3- 9  111.30126742   2- 3-10  109.89546327   2- 3-11  110.53857510

  2- 4- 5  109.23946113   3- 2- 4  118.03986083   4- 5-12   98.76277208   6- 1- 7  108.97828868

  6- 1- 8  107.72324996   7- 1- 8  107.71140047   9- 3-10  109.09890547   9- 3-11  107.87951051

 10- 3-11  108.04115891

 NUCLEAR CHARGE:                   41
 NUMBER OF PRIMITIVE AOS:         184
 NUMBER OF SYMMETRY AOS:          179
 NUMBER OF CONTRACTIONS:          105   ( 105A   )
 NUMBER OF CORE ORBITALS:           5   (   5A   )
 NUMBER OF VALENCE ORBITALS:       27   (  27A   )


 NUCLEAR REPULSION ENERGY  183.22228917


 Eigenvalues of metric

         1 0.345E-02 0.435E-02 0.105E-01 0.141E-01 0.182E-01 0.214E-01 0.331E-01 0.346E-01


 Contracted 2-electron integrals neglected if value below      1.0D-16
 AO integral compression algorithm  1   Integral accuracy      1.0D-16

     127.402 MB (compressed) written to integral file ( 93.4%)

     Node minimum: 40.894 MB, node maximum: 44.302 MB


 NUMBER OF SORTED TWO-ELECTRON INTEGRALS:    5164320.     BUFFER LENGTH:  32768
 NUMBER OF SEGMENTS:   1  SEGMENT LENGTH:    5164320      RECORD LENGTH: 524288

 Memory used in sort:       5.72 MW

 SORT1 READ    17075413. AND WROTE     5135887. INTEGRALS IN     15 RECORDS. CPU TIME:     0.22 SEC, REAL TIME:     0.26 SEC
 SORT2 READ    15396596. AND WROTE    15487395. INTEGRALS IN    468 RECORDS. CPU TIME:     0.06 SEC, REAL TIME:     0.10 SEC

 Node minimum:     5160610.  Node maximum:     5164320. integrals

 OPERATOR DM      FOR CENTER  0  COORDINATES:    0.000000    0.000000    0.000000


 **********************************************************************************************************************************
 DATASETS  * FILE   NREC   LENGTH (MB)   RECORD NAMES
              1      18        3.17       500      610      700      900      950      970     1000      129      960     1100   
                                          VAR    BASINP    GEOM    SYMINP    ZMAT    AOBASIS   BASIS     P2S    ABASIS      S 
                                         1400     1410     1200     1210     1080     1600     1650     1700   
                                           T        V       H0       H01     AOSYM     SMH    MOLCAS    OPER   

 PROGRAMS   *        TOTAL       INT
 CPU TIMES  *         0.92      0.88
 REAL TIME  *         1.37 SEC
 DISK USED  *       305.70 MB      
 GA USED    *         0.00 MB       (max)       0.00 MB       (current)
 **********************************************************************************************************************************

1PROGRAM * RHF-SCF (OPEN SHELL)       Authors: W. Meyer, H.-J. Werner


 NUMBER OF ELECTRONS:      21+   20-    SPACE SYMMETRY=1    SPIN SYMMETRY: Doublet 
 CONVERGENCE THRESHOLDS:    1.00E-10 (Density)    1.00E-11 (Energy)
 MAX. NUMBER OF ITERATIONS:      200
 INTERPOLATION TYPE:            DIIS
 INTERPOLATION STEPS:              2 (START)      1 (STEP)
 LEVEL SHIFTS:                 -0.30 (CLOSED)  0.00 (OPEN) 



 Orbital guess generated from atomic densities. Full valence occupancy:   32

 Molecular orbital dump at record        2100.2

 ITERATION    DDIFF          GRAD             ENERGY        2-EL.EN.            DIPOLE MOMENTS         DIIS
    1      0.000D+00      0.000D+00      -267.17823224    555.820920    0.56985    0.04862   -0.75010    0
    2      0.000D+00      0.617D-02      -267.24891334    555.740842    0.41384   -0.13147   -0.59913    1
    3      0.927D-02      0.214D-02      -267.26108907    555.659114    0.39355   -0.05955   -0.62637    2
    4      0.336D-02      0.912D-03      -267.26469627    555.811173    0.37898   -0.09964   -0.64265    3
    5      0.186D-02      0.363D-03      -267.26526528    555.782517    0.38154   -0.09311   -0.63559    4
    6      0.792D-03      0.110D-03      -267.26534173    555.768758    0.37982   -0.09291   -0.63832    5
    7      0.277D-03      0.511D-04      -267.26536187    555.765750    0.37911   -0.09265   -0.63780    6
    8      0.144D-03      0.273D-04      -267.26536793    555.763801    0.37939   -0.09276   -0.63802    7
    9      0.924D-04      0.115D-04      -267.26536885    555.764116    0.37958   -0.09272   -0.63777    8
   10      0.366D-04      0.501D-05      -267.26536901    555.764729    0.37984   -0.09273   -0.63784    9
   11      0.147D-04      0.196D-05      -267.26536903    555.764570    0.37989   -0.09273   -0.63784    9
   12      0.651D-05      0.671D-06      -267.26536903    555.764705    0.37991   -0.09273   -0.63784    9
   13      0.227D-05      0.226D-06      -267.26536903    555.764621    0.37991   -0.09273   -0.63784    9
   14      0.632D-06      0.757D-07      -267.26536903    555.764629    0.37991   -0.09273   -0.63784    9
   15      0.192D-06      0.299D-07      -267.26536903    555.764625    0.37991   -0.09273   -0.63784    9
   16      0.822D-07      0.144D-07      -267.26536903    555.764627    0.37991   -0.09273   -0.63784    9
   17      0.372D-07      0.747D-08      -267.26536903    555.764627    0.37991   -0.09273   -0.63784    9
   18      0.221D-07      0.341D-08      -267.26536903    555.764627    0.37991   -0.09273   -0.63784    9
   19      0.114D-07      0.133D-08      -267.26536903    555.764627    0.37991   -0.09273   -0.63784    9
   20      0.444D-08      0.565D-09      -267.26536903    555.764627    0.37991   -0.09273   -0.63784    9
   21      0.165D-08      0.286D-09      -267.26536903    555.764627    0.37991   -0.09273   -0.63784    9
   22      0.751D-09      0.161D-09      -267.26536903    555.764627    0.37991   -0.09273   -0.63784    9
   23      0.444D-09      0.793D-10      -267.26536903    555.764627    0.37991   -0.09273   -0.63784    9
   24      0.263D-09      0.316D-10      -267.26536903    555.764627    0.37991   -0.09273   -0.63784    9
   25      0.930D-10      0.129D-10      -267.26536903    555.764627    0.37991   -0.09273   -0.63784    0

 Final alpha occupancy:  21
 Final beta  occupancy:  20

 !RHF STATE 1.1 Energy               -267.265369034946
 Nuclear energy                       183.22228917
 One-electron energy                 -728.36997169
 Two-electron energy                  277.88231349
 Virial quotient                       -1.00155581
 !RHF STATE 1.1 Dipole moment           0.37991437    -0.09272932    -0.63783822
 Dipole moment /Debye                   0.96558276    -0.23567898    -1.62111686

 Orbital energies:

         1.1          2.1          3.1          4.1          5.1          6.1          7.1          8.1          9.1         10.1
    -20.630475   -20.628857   -11.279241   -11.237778   -11.232180    -1.470069    -1.240599    -1.023223    -0.945393    -0.768465

        11.1         12.1         13.1         14.1         15.1         16.1         17.1         18.1         19.1         20.1
     -0.704439    -0.643038    -0.626746    -0.588786    -0.545202    -0.543348    -0.539022    -0.516893    -0.493000    -0.469795

        21.1         22.1         23.1
     -0.352245     0.181239     0.183498


 **********************************************************************************************************************************
 DATASETS  * FILE   NREC   LENGTH (MB)   RECORD NAMES
              1      18        3.17       500      610      700      900      950      970     1000      129      960     1100   
                                          VAR    BASINP    GEOM    SYMINP    ZMAT    AOBASIS   BASIS     P2S    ABASIS      S 
                                         1400     1410     1200     1210     1080     1600     1650     1700   
                                           T        V       H0       H01     AOSYM     SMH    MOLCAS    OPER   

              2       3        0.77       700     1000     2100   
                                         GEOM     BASIS     RHF  

 PROGRAMS   *        TOTAL       RHF       INT
 CPU TIMES  *         2.00      1.07      0.88
 REAL TIME  *         2.62 SEC
 DISK USED  *       322.27 MB      
 SF USED    *         0.04 MB      
 GA USED    *         0.00 MB       (max)       0.00 MB       (current)
 **********************************************************************************************************************************


1PROGRAM * CCSD (Unrestricted open-shell coupled cluster)     Authors: C. Hampel, H.-J. Werner, 1991, M. Deegan, P.J. Knowles, 1992


 Convergence thresholds:  THRVAR = 1.00D-08  THRDEN = 1.00D-10

 CCSD(T)     terms to be evaluated (factor= 1.000)


 Number of core orbitals:           5 (   5 )
 Number of closed-shell orbitals:  15 (  15 )
 Number of active  orbitals:        1 (   1 )
 Number of external orbitals:      84 (  84 )

 Memory could be reduced to 24.91 Mwords without degradation in triples

 Number of N-1 electron functions:              31
 Number of N-2 electron functions:             465
 Number of singly external CSFs:              2635
 Number of doubly external CSFs:           2537250
 Total number of CSFs:                     2539885

 Molecular orbitals read from record     2100.2  Type=RHF/CANONICAL (state 1.1)

 Integral transformation finished. Total CPU:   0.91 sec, npass=  1  Memory used:  12.63 MW

 Starting RMP2 calculation

 ITER.      SQ.NORM     CORR.ENERGY   TOTAL ENERGY   ENERGY CHANGE        DEN1      VAR(S)    VAR(P)  DIIS     TIME
   1      1.24304246    -0.78640009  -268.05176913    -0.78640009    -0.00304994  0.20D-04  0.11D-02  1  1     1.24
   2      1.24568398    -0.78968924  -268.05505828    -0.00328915    -0.00000474  0.54D-06  0.19D-05  2  2     1.55
   3      1.24574951    -0.78973130  -268.05510033    -0.00004206    -0.00000003  0.16D-07  0.68D-08  3  3     1.88
   4      1.24575047    -0.78973130  -268.05510034    -0.00000000    -0.00000000  0.27D-09  0.38D-10  4  4     2.25
   5      1.24575055    -0.78973133  -268.05510037    -0.00000003    -0.00000000  0.25D-11  0.65D-12  5  5     2.64
   6      1.24575056    -0.78973134  -268.05510037    -0.00000001    -0.00000000  0.28D-13  0.86D-14  6  6     3.06
   7      1.24575056    -0.78973134  -268.05510037     0.00000000    -0.00000000  0.47D-15  0.12D-15  6  1     3.47
   8      1.24575056    -0.78973134  -268.05510037     0.00000000    -0.00000000  0.60D-17  0.13D-17  6  2     3.88

 Norm of t1 vector:      0.03893018      S-energy:    -0.00227153      T1 diagnostic:  0.00055014
 Norm of t2 vector:      0.49420138      P-energy:    -0.78745981
                                         Alpha-Beta:  -0.59343299
                                         Alpha-Alpha: -0.10094444
                                         Beta-Beta:   -0.09308238

 Spin contamination <S**2-Sz**2-Sz>     0.00104017
  Reference energy                   -267.265369034945
  RHF-RMP2 correlation energy          -0.789731339073
 !RHF-RMP2 energy                    -268.055100374019

 Starting UCCSD calculation

 ITER.      SQ.NORM     CORR.ENERGY   TOTAL ENERGY   ENERGY CHANGE        DEN1      VAR(S)    VAR(P)  DIIS     TIME
   1      1.26281236    -0.80906547  -268.07443451    -0.80906547    -0.02515807  0.38D-02  0.59D-02  1  1     9.28
   2      1.29158899    -0.83647654  -268.10184557    -0.02741106    -0.00201148  0.22D-03  0.66D-03  2  2    14.65
   3      1.30153167    -0.84097528  -268.10634431    -0.00449874    -0.00032468  0.19D-03  0.56D-04  3  3    20.07
   4      1.30644577    -0.84245268  -268.10782171    -0.00147740    -0.00007209  0.43D-04  0.14D-04  4  4    25.53
   5      1.30917565    -0.84284080  -268.10820983    -0.00038812    -0.00002367  0.19D-04  0.32D-05  5  5    30.98
   6      1.31111492    -0.84304528  -268.10841431    -0.00020448    -0.00000646  0.42D-05  0.12D-05  6  6    36.42
   7      1.31206461    -0.84310408  -268.10847311    -0.00005880    -0.00000208  0.14D-05  0.37D-06  6  2    41.87
   8      1.31250661    -0.84314678  -268.10851581    -0.00004270    -0.00000065  0.45D-06  0.11D-06  6  1    47.34
   9      1.31269205    -0.84315137  -268.10852040    -0.00000459    -0.00000022  0.15D-06  0.35D-07  6  4    52.80
  10      1.31275532    -0.84315430  -268.10852334    -0.00000293    -0.00000005  0.35D-07  0.95D-08  6  3    58.25
  11      1.31278486    -0.84315304  -268.10852208     0.00000126    -0.00000002  0.13D-07  0.28D-08  6  5    63.74
  12      1.31279525    -0.84315278  -268.10852182     0.00000026    -0.00000000  0.26D-08  0.95D-09  6  6    69.18
  13      1.31279411    -0.84315187  -268.10852090     0.00000092    -0.00000000  0.96D-09  0.28D-09  6  2    74.70
  14      1.31278890    -0.84315102  -268.10852006     0.00000084    -0.00000000  0.21D-09  0.67D-10  6  1    80.22
  15      1.31278482    -0.84315044  -268.10851947     0.00000059    -0.00000000  0.78D-10  0.19D-10  6  4    85.71
  16      1.31278164    -0.84315005  -268.10851909     0.00000038    -0.00000000  0.28D-10  0.63D-11  6  3    91.20
  17      1.31277944    -0.84314981  -268.10851885     0.00000024    -0.00000000  0.10D-10  0.24D-11  6  5    96.67
  18      1.31277853    -0.84314975  -268.10851879     0.00000006    -0.00000000  0.41D-11  0.87D-12  6  6   102.12
  19      1.31277792    -0.84314972  -268.10851875     0.00000003    -0.00000000  0.16D-11  0.37D-12  6  2   107.58
  20      1.31277760    -0.84314971  -268.10851874     0.00000001    -0.00000000  0.60D-12  0.13D-12  6  1   113.04
  21      1.31277744    -0.84314970  -268.10851873     0.00000001    -0.00000000  0.28D-12  0.58D-13  6  4   118.56
  22      1.31277731    -0.84314969  -268.10851872     0.00000001    -0.00000000  0.74D-13  0.21D-13  6  3   124.02
  23      1.31277726    -0.84314969  -268.10851872     0.00000000    -0.00000000  0.21D-13  0.63D-14  6  5   129.49
  24      1.31277725    -0.84314969  -268.10851872    -0.00000000    -0.00000000  0.67D-14  0.23D-14  6  6   134.93
  25      1.31277725    -0.84314969  -268.10851872    -0.00000000    -0.00000000  0.21D-14  0.52D-15  6  2   140.39
  26      1.31277726    -0.84314969  -268.10851872    -0.00000000    -0.00000000  0.77D-15  0.15D-15  6  1   145.84
  27      1.31277727    -0.84314969  -268.10851872    -0.00000000    -0.00000000  0.20D-15  0.63D-16  6  3   152.32
  28      1.31277728    -0.84314969  -268.10851872    -0.00000000    -0.00000000  0.30D-16  0.11D-16  6  4   158.76
  29      1.31277728    -0.84314969  -268.10851872    -0.00000000    -0.00000000  0.71D-17  0.29D-17  6  5   165.21
  30      1.31277728    -0.84314969  -268.10851872    -0.00000000    -0.00000000  0.15D-17  0.54D-18  6  6   171.65
  31      1.31277728    -0.84314969  -268.10851872    -0.00000000    -0.00000000  0.35D-18  0.10D-18  6  2   178.11

 Norm of t1 vector:      0.13872265      S-energy:    -0.00282102      T1 diagnostic:  0.01617019
                                                                       D1 diagnostic:  0.06280795
 Norm of t2 vector:      0.54178714      P-energy:    -0.84032867
                                         Alpha-Beta:  -0.66488178
                                         Alpha-Alpha: -0.09147551
                                         Beta-Beta:   -0.08397139

 Spin contamination <S**2-Sz**2-Sz>     0.00217184

 Memory could be reduced to 28.85 Mwords without degradation in triples
 

 RESULTS
 =======

  Reference energy                   -267.265369034945
  UCCSD singles energy                 -0.002821017816
  UCCSD pair energy                    -0.840328671695
  UCCSD correlation energy             -0.843149689511
  Triples (T) contribution             -0.024977421705
  Total correlation energy             -0.868127111216
 
  RHF-UCCSD energy                   -268.108518724456
  RHF-UCCSD[T] energy                -268.134832246171
  RHF-UCCSD-T energy                 -268.133074525796
 !RHF-UCCSD(T) energy                -268.133496146161

 Program statistics:

 Available memory in ccsd:               999997692
 Min. memory needed in ccsd:               7337057
 Max. memory used in ccsd:                10523002
 Max. memory used in cckext:              10867977 (31 integral passes)
 Max. memory used in cckint:              12633073 ( 1 integral passes)



 **********************************************************************************************************************************
 DATASETS  * FILE   NREC   LENGTH (MB)   RECORD NAMES
              1      18        3.17       500      610      700      900      950      970     1000      129      960     1100   
                                          VAR    BASINP    GEOM    SYMINP    ZMAT    AOBASIS   BASIS     P2S    ABASIS      S 
                                         1400     1410     1200     1210     1080     1600     1650     1700   
                                           T        V       H0       H01     AOSYM     SMH    MOLCAS    OPER   

              2       3        0.77       700     1000     2100   
                                         GEOM     BASIS     RHF  

 PROGRAMS   *        TOTAL  UCCSD(T)       RHF       INT
 CPU TIMES  *       232.34    230.34      1.07      0.88
 REAL TIME  *       251.40 SEC
 DISK USED  *         1.29 GB      
 SF USED    *       553.73 MB      
 GA USED    *         0.00 MB       (max)       0.00 MB       (current)
 **********************************************************************************************************************************

        UCCSD(T)        RHF-SCF 
   -268.13349615   -267.26536903
 **********************************************************************************************************************************
 Variable memory released
