
 Primary working directories    : /tmp/320938.85.gen6.q
 Secondary working directories  : /tmp/320938.85.gen6.q
 Wavefunction directory         : /home/vulcan/mel64643/wfu/
 Main file repository           : /tmp/320938.85.gen6.q/

 ARCHNAME  : Linux/x86_64
 FC        : /opt/intel/compilers_and_libraries_2016.1.150/linux/bin/intel64/ifort
 FCVERSION : 16.0.1
 BLASLIB   : -mkl
 id        : ccgc

 Nodes     nprocs
 n081         3
 Number of processes for MPI-2 version of Molpro:   nprocs(total)=    4   nprocs(compute)=    3   nprocs(helper)=    1
 ga_uses_ma=false, calling ma_init with nominal heap.
 GA-space will be limited to   8.0 MW (determined by -G option)

 Using customized tuning parameters: mindgm=10; mindgv=16; mindgc=4; mindgr=1; noblas=0; mincuda=1000; minvec=7
 default implementation of scratch files=sf  

 ***,Frequencies for min3
 memory,1000,m
 gthresh,energy=1.0d-10,orbital=1.0d-10,oneint=1.0d-16,twoint=1.0d-16,optgrad=1.0d-6,compress=1.0d-13
 geomtyp=xyz
 
  geometry = {
  12
  arbitrary comment
     C    1.776964391707    0.711398808326   -0.047841264117
     C    0.491851038607   -0.059957565567   -0.196226120821
     C    0.450320560748   -1.536305384832    0.101446886164
     O   -0.560818098403    0.727195755748    0.254643069170
     O   -1.837816411652    0.092283439514   -0.120686384960
     H    2.585490536132    0.211574125987   -0.610729795284
     H    1.660502510806    1.742963741284   -0.425759333325
     H    2.094926794706    0.771924351939    1.018238044775
     H   -0.504540298468   -1.982399347127   -0.220209435435
     H    1.282298643587   -2.046097931801   -0.416853903125
     H    0.561666795918   -1.718403670433    1.194884436818
     H   -1.988561076054    0.550634968333   -0.967401957066
  }
 
 basis=cc-pvdz
 {rhf;maxit,200}
 {uccsd(t);maxit,200}

 Variables initialized (661), CPU time= 0.00 sec
 Commands  initialized (458), CPU time= 0.00 sec, 486 directives.
 Default parameters read. Elapsed time= 0.05 sec

 Checking input...
 Passed
1


                                         ***  PROGRAM SYSTEM MOLPRO  ***
                         Copyright, University College Cardiff Consultants Limited, 2008

                                    Version 2010.1 linked May 16 2016 07:17:05


 **********************************************************************************************************************************
 LABEL *   Frequencies for min3                                                          
 Linux-4.4.3/n081(x86_64) 64 bit mpp version                                             DATE: 07-Mar-20          TIME: 01:26:35  
 **********************************************************************************************************************************

 SHA1:             9e8077add272b0f3cad6f7df79ec5211205f459d
 **********************************************************************************************************************************

 THRESHOLDS:

 ZERO    =  1.00D-12  ONEINT  =  1.00D-16  TWOINT  =  1.00D-16  PREFAC  =  1.00D-14  LOCALI  =  1.00D-09  EORDER  =  1.00D-04
 ENERGY  =  1.00D-10  ETEST   =  0.00D+00  EDENS   =  0.00D+00  THRDEDEF=  1.00D-06  GRADIENT=  1.00D-02  STEP    =  1.00D-03
 ORBITAL =  1.00D-10  CIVEC   =  1.00D-05  COEFF   =  1.00D-04  PRINTCI =  5.00D-02  PUNCHCI =  9.90D+01  OPTGRAD =  1.00D-06
 OPTENERG=  1.00D-06  OPTSTEP =  3.00D-04  THRGRAD =  1.00D-10  COMPRESS=  1.00D-13  VARMIN  =  1.00D-07  VARMAX  =  1.00D-03
 THRDOUB =  0.00D+00  THRDIV  =  1.00D-05  THRRED  =  1.00D-07  THRPSP  =  1.00D+00  THRDC   =  1.00D-10  THRCS   =  1.00D-10
 THRNRM  =  1.00D-08  THREQ   =  0.00D+00  THRDE   =  1.00D+00  THRREF  =  1.00D-05  SPARFAC =  1.00D+00  THRDLP  =  1.00D-07
 THRDIA  =  1.00D-10  THRDLS  =  1.00D-07  THRGPS  =  0.00D+00  THRKEX  =  0.00D+00  THRDIS  =  2.00D-01  THRVAR  =  1.00D-10
 THRLOC  =  1.00D-06  THRGAP  =  1.00D-06  THRLOCT = -1.00D+00  THRGAPT = -1.00D+00  THRORB  =  1.00D-06  THRMLTP =  0.00D+00
 THRCPQCI=  1.00D-10  KEXTA   =  0.00D+00  THRCOARS=  0.00D+00  SYMTOL  =  1.00D-06  GRADTOL =  1.00D-06  THROVL  =  1.00D-08
 THRORTH =  1.00D-08  GRID    =  1.00D-06  GRIDMAX =  1.00D-03  DTMAX   =  0.00D+00

 SETTING GEOMTYP        =    XYZ

 Variable memory set to 1000000000 words,  buffer space   230000 words

 SETTING BASIS          =    CC-PVDZ


 Recomputing integrals since basis changed


 Using spherical harmonics

 Library entry C      S cc-pVDZ              selected for orbital group  1
 Library entry C      P cc-pVDZ              selected for orbital group  1
 Library entry C      D cc-pVDZ              selected for orbital group  1
 Library entry O      S cc-pVDZ              selected for orbital group  2
 Library entry O      P cc-pVDZ              selected for orbital group  2
 Library entry O      D cc-pVDZ              selected for orbital group  2
 Library entry H      S cc-pVDZ              selected for orbital group  3
 Library entry H      P cc-pVDZ              selected for orbital group  3

1PROGRAM * SEWARD (Integral evaluation for generally contracted gaussian basis sets)     Author: Roland Lindh, 1990

 Geometry written to block  1 of record 700


 Point group  C1  



 ATOMIC COORDINATES

 NR  ATOM    CHARGE       X              Y              Z

   1  C       6.00    3.357976046    1.344348918   -0.090406887
   2  C       6.00    0.929463760   -0.113303378   -0.370813628
   3  C       6.00    0.850982531   -2.903196432    0.191706832
   4  O       8.00   -1.059792616    1.374200822    0.481205662
   5  O       8.00   -3.472969698    0.174390427   -0.228064215
   6  H       1.00    4.885869029    0.399817155   -1.154112053
   7  H       1.00    3.137894986    3.293724128   -0.804568538
   8  H       1.00    3.958837907    1.458725619    1.924191041
   9  H       1.00   -0.953442986   -3.746191849   -0.416135525
  10  H       1.00    2.423193255   -3.866564729   -0.787739714
  11  H       1.00    1.061396421   -3.247312320    2.258004344
  12  H       1.00   -3.757835829    1.040549289   -1.828124758

 Bond lengths in Bohr (Angstrom)

 1-2  2.846234368  1-6  2.087598118  1-7  2.087708372  1-8  2.105403006  2-3  2.847119917
     ( 1.506162359)     ( 1.104709345)     ( 1.104767689)     ( 1.114131287)     ( 1.506630971)

  2- 4  2.625975352   3- 9  2.082322034   3-10  2.087879444   3-11  2.105296929   4- 5  2.786760193
       ( 1.389606307)       ( 1.101917362)       ( 1.104858217)       ( 1.114075153)       ( 1.474689981)

  5-12  1.841622552
       ( 0.974544682)

 Bond angles

  1-2-3  120.39075208   1-2-4  108.92230933   2-1-6  110.03309560   2-1-7  110.76598917

  2- 1- 8  111.44432274   2- 3- 9  111.27902895   2- 3-10  109.79732077   2- 3-11  110.56852275

  2- 4- 5  109.23946093   3- 2- 4  118.03985942   4- 5-12   98.77664866   6- 1- 7  108.98508551

  6- 1- 8  107.65377125   7- 1- 8  107.85956420   9- 3-10  109.19553549   9- 3-11  107.87457461

 10- 3-11  108.04366643

 NUCLEAR CHARGE:                   41
 NUMBER OF PRIMITIVE AOS:         184
 NUMBER OF SYMMETRY AOS:          179
 NUMBER OF CONTRACTIONS:          105   ( 105A   )
 NUMBER OF CORE ORBITALS:           5   (   5A   )
 NUMBER OF VALENCE ORBITALS:       27   (  27A   )


 NUCLEAR REPULSION ENERGY  183.22856488


 Eigenvalues of metric

         1 0.345E-02 0.435E-02 0.105E-01 0.141E-01 0.182E-01 0.214E-01 0.331E-01 0.346E-01


 Contracted 2-electron integrals neglected if value below      1.0D-16
 AO integral compression algorithm  1   Integral accuracy      1.0D-16

     127.402 MB (compressed) written to integral file ( 93.4%)

     Node minimum: 34.341 MB, node maximum: 56.885 MB


 NUMBER OF SORTED TWO-ELECTRON INTEGRALS:    5164320.     BUFFER LENGTH:  32768
 NUMBER OF SEGMENTS:   1  SEGMENT LENGTH:    5164320      RECORD LENGTH: 524288

 Memory used in sort:       5.72 MW

 SORT1 READ    17075413. AND WROTE     5135906. INTEGRALS IN     15 RECORDS. CPU TIME:     0.31 SEC, REAL TIME:     0.34 SEC
 SORT2 READ    15396629. AND WROTE    15487395. INTEGRALS IN    414 RECORDS. CPU TIME:     0.10 SEC, REAL TIME:     0.13 SEC

 Node minimum:     5160610.  Node maximum:     5164320. integrals

 OPERATOR DM      FOR CENTER  0  COORDINATES:    0.000000    0.000000    0.000000


 **********************************************************************************************************************************
 DATASETS  * FILE   NREC   LENGTH (MB)   RECORD NAMES
              1      18        3.17       500      610      700      900      950      970     1000      129      960     1100   
                                          VAR    BASINP    GEOM    SYMINP    ZMAT    AOBASIS   BASIS     P2S    ABASIS      S 
                                         1400     1410     1200     1210     1080     1600     1650     1700   
                                           T        V       H0       H01     AOSYM     SMH    MOLCAS    OPER   

 PROGRAMS   *        TOTAL       INT
 CPU TIMES  *         1.16      1.12
 REAL TIME  *         1.49 SEC
 DISK USED  *       318.28 MB      
 GA USED    *         0.00 MB       (max)       0.00 MB       (current)
 **********************************************************************************************************************************

1PROGRAM * RHF-SCF (OPEN SHELL)       Authors: W. Meyer, H.-J. Werner


 NUMBER OF ELECTRONS:      21+   20-    SPACE SYMMETRY=1    SPIN SYMMETRY: Doublet 
 CONVERGENCE THRESHOLDS:    1.00E-10 (Density)    1.00E-11 (Energy)
 MAX. NUMBER OF ITERATIONS:      200
 INTERPOLATION TYPE:            DIIS
 INTERPOLATION STEPS:              2 (START)      1 (STEP)
 LEVEL SHIFTS:                 -0.30 (CLOSED)  0.00 (OPEN) 



 Orbital guess generated from atomic densities. Full valence occupancy:   32

 Molecular orbital dump at record        2100.2

 ITERATION    DDIFF          GRAD             ENERGY        2-EL.EN.            DIPOLE MOMENTS         DIIS
    1      0.000D+00      0.000D+00      -267.17824203    555.833383    0.57157    0.04932   -0.74849    0
    2      0.000D+00      0.617D-02      -267.24892462    555.751817    0.41435   -0.13107   -0.59891    1
    3      0.927D-02      0.214D-02      -267.26110832    555.670477    0.39400   -0.05927   -0.62647    2
    4      0.336D-02      0.912D-03      -267.26471960    555.822579    0.37928   -0.09943   -0.64298    3
    5      0.186D-02      0.363D-03      -267.26528975    555.794000    0.38181   -0.09297   -0.63605    4
    6      0.793D-03      0.110D-03      -267.26536647    555.780284    0.38008   -0.09278   -0.63882    5
    7      0.277D-03      0.512D-04      -267.26538671    555.777278    0.37937   -0.09253   -0.63832    6
    8      0.144D-03      0.273D-04      -267.26539279    555.775338    0.37964   -0.09265   -0.63854    7
    9      0.926D-04      0.115D-04      -267.26539371    555.775652    0.37983   -0.09260   -0.63829    8
   10      0.366D-04      0.502D-05      -267.26539387    555.776266    0.38009   -0.09261   -0.63836    9
   11      0.147D-04      0.197D-05      -267.26539390    555.776106    0.38014   -0.09261   -0.63836    9
   12      0.652D-05      0.672D-06      -267.26539390    555.776240    0.38016   -0.09261   -0.63836    9
   13      0.228D-05      0.227D-06      -267.26539390    555.776156    0.38016   -0.09261   -0.63836    9
   14      0.633D-06      0.759D-07      -267.26539390    555.776164    0.38016   -0.09261   -0.63836    9
   15      0.193D-06      0.301D-07      -267.26539390    555.776160    0.38016   -0.09261   -0.63836    9
   16      0.827D-07      0.145D-07      -267.26539390    555.776162    0.38016   -0.09261   -0.63836    9
   17      0.375D-07      0.752D-08      -267.26539390    555.776162    0.38016   -0.09261   -0.63836    9
   18      0.223D-07      0.342D-08      -267.26539390    555.776162    0.38016   -0.09261   -0.63836    9
   19      0.114D-07      0.133D-08      -267.26539390    555.776162    0.38016   -0.09261   -0.63836    9
   20      0.445D-08      0.568D-09      -267.26539390    555.776162    0.38016   -0.09261   -0.63836    9
   21      0.166D-08      0.287D-09      -267.26539390    555.776162    0.38016   -0.09261   -0.63836    9
   22      0.756D-09      0.162D-09      -267.26539390    555.776162    0.38016   -0.09261   -0.63836    9
   23      0.447D-09      0.798D-10      -267.26539390    555.776162    0.38016   -0.09261   -0.63836    9
   24      0.264D-09      0.318D-10      -267.26539390    555.776162    0.38016   -0.09261   -0.63836    9
   25      0.936D-10      0.130D-10      -267.26539390    555.776162    0.38016   -0.09261   -0.63836    0

 Final alpha occupancy:  21
 Final beta  occupancy:  20

 !RHF STATE 1.1 Energy               -267.265393899948
 Nuclear energy                       183.22856488
 One-electron energy                 -728.38203985
 Two-electron energy                  277.88808107
 Virial quotient                       -1.00155172
 !RHF STATE 1.1 Dipole moment           0.38016388    -0.09261263    -0.63835708
 Dipole moment /Debye                   0.96621691    -0.23538240    -1.62243559

 Orbital energies:

         1.1          2.1          3.1          4.1          5.1          6.1          7.1          8.1          9.1         10.1
    -20.630455   -20.628803   -11.279182   -11.237881   -11.232114    -1.470098    -1.240683    -1.023285    -0.945399    -0.768445

        11.1         12.1         13.1         14.1         15.1         16.1         17.1         18.1         19.1         20.1
     -0.704526    -0.643029    -0.626725    -0.588746    -0.545220    -0.543534    -0.538921    -0.517111    -0.492980    -0.469743

        21.1         22.1         23.1
     -0.352120     0.181281     0.183514


 **********************************************************************************************************************************
 DATASETS  * FILE   NREC   LENGTH (MB)   RECORD NAMES
              1      18        3.17       500      610      700      900      950      970     1000      129      960     1100   
                                          VAR    BASINP    GEOM    SYMINP    ZMAT    AOBASIS   BASIS     P2S    ABASIS      S 
                                         1400     1410     1200     1210     1080     1600     1650     1700   
                                           T        V       H0       H01     AOSYM     SMH    MOLCAS    OPER   

              2       3        0.77       700     1000     2100   
                                         GEOM     BASIS     RHF  

 PROGRAMS   *        TOTAL       RHF       INT
 CPU TIMES  *         2.52      1.35      1.12
 REAL TIME  *         2.97 SEC
 DISK USED  *       334.85 MB      
 SF USED    *         0.04 MB      
 GA USED    *         0.00 MB       (max)       0.00 MB       (current)
 **********************************************************************************************************************************


1PROGRAM * CCSD (Unrestricted open-shell coupled cluster)     Authors: C. Hampel, H.-J. Werner, 1991, M. Deegan, P.J. Knowles, 1992


 Convergence thresholds:  THRVAR = 1.00D-08  THRDEN = 1.00D-10

 CCSD(T)     terms to be evaluated (factor= 1.000)


 Number of core orbitals:           5 (   5 )
 Number of closed-shell orbitals:  15 (  15 )
 Number of active  orbitals:        1 (   1 )
 Number of external orbitals:      84 (  84 )

 Memory could be reduced to 24.91 Mwords without degradation in triples

 Number of N-1 electron functions:              31
 Number of N-2 electron functions:             465
 Number of singly external CSFs:              2635
 Number of doubly external CSFs:           2537250
 Total number of CSFs:                     2539885

 Molecular orbitals read from record     2100.2  Type=RHF/CANONICAL (state 1.1)

 Integral transformation finished. Total CPU:   0.92 sec, npass=  1  Memory used:  12.63 MW

 Starting RMP2 calculation

 ITER.      SQ.NORM     CORR.ENERGY   TOTAL ENERGY   ENERGY CHANGE        DEN1      VAR(S)    VAR(P)  DIIS     TIME
   1      1.24302286    -0.78637390  -268.05176780    -0.78637390    -0.00304950  0.20D-04  0.11D-02  1  1     1.23
   2      1.24566400    -0.78966257  -268.05505647    -0.00328866    -0.00000475  0.54D-06  0.19D-05  2  2     1.51
   3      1.24572957    -0.78970464  -268.05509854    -0.00004207    -0.00000003  0.16D-07  0.68D-08  3  3     1.82
   4      1.24573053    -0.78970464  -268.05509854    -0.00000000    -0.00000000  0.27D-09  0.38D-10  4  4     2.16
   5      1.24573061    -0.78970467  -268.05509857    -0.00000003    -0.00000000  0.25D-11  0.65D-12  5  5     2.53
   6      1.24573062    -0.78970468  -268.05509858    -0.00000001    -0.00000000  0.28D-13  0.87D-14  6  6     2.93
   7      1.24573062    -0.78970468  -268.05509858     0.00000000    -0.00000000  0.47D-15  0.12D-15  6  1     3.32
   8      1.24573062    -0.78970468  -268.05509858     0.00000000    -0.00000000  0.60D-17  0.13D-17  6  2     3.72

 Norm of t1 vector:      0.03894837      S-energy:    -0.00227302      T1 diagnostic:  0.00055037
 Norm of t2 vector:      0.49417977      P-energy:    -0.78743166
                                         Alpha-Beta:  -0.59341120
                                         Alpha-Alpha: -0.10094294
                                         Beta-Beta:   -0.09307752

 Spin contamination <S**2-Sz**2-Sz>     0.00104117
  Reference energy                   -267.265393899946
  RHF-RMP2 correlation energy          -0.789704680041
 !RHF-RMP2 energy                    -268.055098579987

 Starting UCCSD calculation

 ITER.      SQ.NORM     CORR.ENERGY   TOTAL ENERGY   ENERGY CHANGE        DEN1      VAR(S)    VAR(P)  DIIS     TIME
   1      1.26279640    -0.80904634  -268.07444024    -0.80904634    -0.02515524  0.38D-02  0.59D-02  1  1    10.28
   2      1.29157024    -0.83645496  -268.10184886    -0.02740862    -0.00201099  0.22D-03  0.66D-03  2  2    16.89
   3      1.30151145    -0.84095274  -268.10634664    -0.00449778    -0.00032465  0.19D-03  0.56D-04  3  3    23.56
   4      1.30642551    -0.84242987  -268.10782377    -0.00147713    -0.00007211  0.43D-04  0.14D-04  4  4    30.19
   5      1.30915676    -0.84281810  -268.10821200    -0.00038823    -0.00002369  0.19D-04  0.32D-05  5  5    36.93
   6      1.31109785    -0.84302271  -268.10841661    -0.00020461    -0.00000647  0.42D-05  0.12D-05  6  6    43.66
   7      1.31204879    -0.84308158  -268.10847548    -0.00005887    -0.00000208  0.14D-05  0.37D-06  6  2    50.29
   8      1.31249152    -0.84312432  -268.10851822    -0.00004275    -0.00000065  0.45D-06  0.11D-06  6  1    56.96
   9      1.31267733    -0.84312892  -268.10852282    -0.00000460    -0.00000022  0.15D-06  0.35D-07  6  4    63.70
  10      1.31274071    -0.84313185  -268.10852575    -0.00000293    -0.00000005  0.35D-07  0.95D-08  6  3    70.38
  11      1.31277026    -0.84313059  -268.10852449     0.00000126    -0.00000002  0.13D-07  0.28D-08  6  5    77.17
  12      1.31278067    -0.84313034  -268.10852424     0.00000026    -0.00000000  0.26D-08  0.95D-09  6  6    83.86
  13      1.31277953    -0.84312942  -268.10852332     0.00000092    -0.00000000  0.96D-09  0.29D-09  6  2    90.67
  14      1.31277432    -0.84312858  -268.10852248     0.00000084    -0.00000000  0.21D-09  0.68D-10  6  1    97.35
  15      1.31277024    -0.84312799  -268.10852189     0.00000059    -0.00000000  0.78D-10  0.19D-10  6  4   104.10
  16      1.31276706    -0.84312761  -268.10852151     0.00000038    -0.00000000  0.28D-10  0.63D-11  6  3   110.88
  17      1.31276485    -0.84312737  -268.10852127     0.00000024    -0.00000000  0.10D-10  0.24D-11  6  5   117.68
  18      1.31276394    -0.84312731  -268.10852121     0.00000006    -0.00000000  0.41D-11  0.87D-12  6  6   124.47
  19      1.31276333    -0.84312727  -268.10852117     0.00000003    -0.00000000  0.16D-11  0.37D-12  6  2   131.11
  20      1.31276301    -0.84312726  -268.10852116     0.00000001    -0.00000000  0.60D-12  0.13D-12  6  1   137.91
  21      1.31276285    -0.84312725  -268.10852115     0.00000001    -0.00000000  0.28D-12  0.58D-13  6  4   144.64
  22      1.31276272    -0.84312724  -268.10852114     0.00000001    -0.00000000  0.74D-13  0.21D-13  6  3   151.39
  23      1.31276266    -0.84312724  -268.10852114     0.00000000    -0.00000000  0.22D-13  0.63D-14  6  5   158.11
  24      1.31276266    -0.84312724  -268.10852114    -0.00000000    -0.00000000  0.68D-14  0.23D-14  6  6   164.73
  25      1.31276266    -0.84312724  -268.10852114    -0.00000000    -0.00000000  0.21D-14  0.53D-15  6  2   171.14
  26      1.31276267    -0.84312724  -268.10852114    -0.00000000    -0.00000000  0.77D-15  0.15D-15  6  1   177.43
  27      1.31276268    -0.84312724  -268.10852114    -0.00000000    -0.00000000  0.20D-15  0.63D-16  6  3   183.73
  28      1.31276268    -0.84312724  -268.10852114    -0.00000000    -0.00000000  0.30D-16  0.11D-16  6  4   190.02
  29      1.31276269    -0.84312724  -268.10852114    -0.00000000    -0.00000000  0.71D-17  0.30D-17  6  5   196.32
  30      1.31276269    -0.84312724  -268.10852114    -0.00000000    -0.00000000  0.15D-17  0.54D-18  6  6   202.62
  31      1.31276269    -0.84312724  -268.10852114    -0.00000000    -0.00000000  0.36D-18  0.11D-18  6  2   208.91

 Norm of t1 vector:      0.13874081      S-energy:    -0.00282316      T1 diagnostic:  0.01617047
                                                                       D1 diagnostic:  0.06278672
 Norm of t2 vector:      0.54176902      P-energy:    -0.84030409
                                         Alpha-Beta:  -0.66485859
                                         Alpha-Alpha: -0.09147645
                                         Beta-Beta:   -0.08396905

 Spin contamination <S**2-Sz**2-Sz>     0.00217585

 Memory could be reduced to 28.85 Mwords without degradation in triples
 

 RESULTS
 =======

  Reference energy                   -267.265393899946
  UCCSD singles energy                 -0.002823157780
  UCCSD pair energy                    -0.840304085284
  UCCSD correlation energy             -0.843127243064
  Triples (T) contribution             -0.024975045642
  Total correlation energy             -0.868102288706
 
  RHF-UCCSD energy                   -268.108521143010
  RHF-UCCSD[T] energy                -268.134831797584
  RHF-UCCSD-T energy                 -268.133074785570
 !RHF-UCCSD(T) energy                -268.133496188652

 Program statistics:

 Available memory in ccsd:               999997692
 Min. memory needed in ccsd:               7337057
 Max. memory used in ccsd:                10523002
 Max. memory used in cckext:              10867977 (31 integral passes)
 Max. memory used in cckint:              12633073 ( 1 integral passes)



 **********************************************************************************************************************************
 DATASETS  * FILE   NREC   LENGTH (MB)   RECORD NAMES
              1      18        3.17       500      610      700      900      950      970     1000      129      960     1100   
                                          VAR    BASINP    GEOM    SYMINP    ZMAT    AOBASIS   BASIS     P2S    ABASIS      S 
                                         1400     1410     1200     1210     1080     1600     1650     1700   
                                           T        V       H0       H01     AOSYM     SMH    MOLCAS    OPER   

              2       3        0.77       700     1000     2100   
                                         GEOM     BASIS     RHF  

 PROGRAMS   *        TOTAL  UCCSD(T)       RHF       INT
 CPU TIMES  *       256.46    253.95      1.35      1.12
 REAL TIME  *       265.56 SEC
 DISK USED  *         1.30 GB      
 SF USED    *       553.73 MB      
 GA USED    *         0.00 MB       (max)       0.00 MB       (current)
 **********************************************************************************************************************************

        UCCSD(T)        RHF-SCF 
   -268.13349619   -267.26539390
 **********************************************************************************************************************************
 Variable memory released
