
 Primary working directories    : /tmp/320938.511.gen4.q
 Secondary working directories  : /tmp/320938.511.gen4.q
 Wavefunction directory         : /home/vulcan/mel64643/wfu/
 Main file repository           : /tmp/320938.511.gen4.q/

 ARCHNAME  : Linux/x86_64
 FC        : /opt/intel/compilers_and_libraries_2016.1.150/linux/bin/intel64/ifort
 FCVERSION : 16.0.1
 BLASLIB   : -mkl
 id        : ccgc

 Nodes     nprocs
 n061         3
 Number of processes for MPI-2 version of Molpro:   nprocs(total)=    4   nprocs(compute)=    3   nprocs(helper)=    1
 ga_uses_ma=false, calling ma_init with nominal heap.
 GA-space will be limited to   8.0 MW (determined by -G option)

 Using customized tuning parameters: mindgm=10; mindgv=16; mindgc=4; mindgr=1; noblas=0; mincuda=1000; minvec=7
 default implementation of scratch files=sf  

 ***,Frequencies for min3
 memory,1000,m
 gthresh,energy=1.0d-10,orbital=1.0d-10,oneint=1.0d-16,twoint=1.0d-16,optgrad=1.0d-6,compress=1.0d-13
 geomtyp=xyz
 
  geometry = {
  12
  arbitrary comment
     C    1.776964391707    0.711398808326   -0.047331391796
     C    0.491811976407   -0.059992870174   -0.196493901896
     C    0.450909202373   -1.536434052255    0.101438343178
     O   -0.560880647667    0.727241277701    0.254443032848
     O   -1.838042523805    0.092453266771   -0.120539869318
     H    2.585189811624    0.213252847283   -0.611484831474
     H    1.660898093973    1.741914432274   -0.426791123701
     H    2.095246502310    0.773117743920    1.017525585276
     H   -0.505670875062   -1.982985176336   -0.219877668412
     H    1.281074977375   -2.048048170404   -0.416920069303
     H    0.561056194082   -1.719553938561    1.194929353454
     H   -1.987973279576    0.551033138640   -0.967144595570
  }
 
 basis=cc-pvdz
 {rhf;maxit,200}
 {uccsd(t);maxit,200}

 Variables initialized (661), CPU time= 0.00 sec
 Commands  initialized (458), CPU time= 0.00 sec, 486 directives.
 Default parameters read. Elapsed time= 0.05 sec

 Checking input...
 Passed
1


                                         ***  PROGRAM SYSTEM MOLPRO  ***
                         Copyright, University College Cardiff Consultants Limited, 2008

                                    Version 2010.1 linked May 16 2016 07:17:05


 **********************************************************************************************************************************
 LABEL *   Frequencies for min3                                                          
 Linux-4.4.3/n061(x86_64) 64 bit mpp version                                             DATE: 07-Mar-20          TIME: 03:58:35  
 **********************************************************************************************************************************

 SHA1:             9e8077add272b0f3cad6f7df79ec5211205f459d
 **********************************************************************************************************************************

 THRESHOLDS:

 ZERO    =  1.00D-12  ONEINT  =  1.00D-16  TWOINT  =  1.00D-16  PREFAC  =  1.00D-14  LOCALI  =  1.00D-09  EORDER  =  1.00D-04
 ENERGY  =  1.00D-10  ETEST   =  0.00D+00  EDENS   =  0.00D+00  THRDEDEF=  1.00D-06  GRADIENT=  1.00D-02  STEP    =  1.00D-03
 ORBITAL =  1.00D-10  CIVEC   =  1.00D-05  COEFF   =  1.00D-04  PRINTCI =  5.00D-02  PUNCHCI =  9.90D+01  OPTGRAD =  1.00D-06
 OPTENERG=  1.00D-06  OPTSTEP =  3.00D-04  THRGRAD =  1.00D-10  COMPRESS=  1.00D-13  VARMIN  =  1.00D-07  VARMAX  =  1.00D-03
 THRDOUB =  0.00D+00  THRDIV  =  1.00D-05  THRRED  =  1.00D-07  THRPSP  =  1.00D+00  THRDC   =  1.00D-10  THRCS   =  1.00D-10
 THRNRM  =  1.00D-08  THREQ   =  0.00D+00  THRDE   =  1.00D+00  THRREF  =  1.00D-05  SPARFAC =  1.00D+00  THRDLP  =  1.00D-07
 THRDIA  =  1.00D-10  THRDLS  =  1.00D-07  THRGPS  =  0.00D+00  THRKEX  =  0.00D+00  THRDIS  =  2.00D-01  THRVAR  =  1.00D-10
 THRLOC  =  1.00D-06  THRGAP  =  1.00D-06  THRLOCT = -1.00D+00  THRGAPT = -1.00D+00  THRORB  =  1.00D-06  THRMLTP =  0.00D+00
 THRCPQCI=  1.00D-10  KEXTA   =  0.00D+00  THRCOARS=  0.00D+00  SYMTOL  =  1.00D-06  GRADTOL =  1.00D-06  THROVL  =  1.00D-08
 THRORTH =  1.00D-08  GRID    =  1.00D-06  GRIDMAX =  1.00D-03  DTMAX   =  0.00D+00

 SETTING GEOMTYP        =    XYZ

 Variable memory set to 1000000000 words,  buffer space   230000 words

 SETTING BASIS          =    CC-PVDZ


 Recomputing integrals since basis changed


 Using spherical harmonics

 Library entry C      S cc-pVDZ              selected for orbital group  1
 Library entry C      P cc-pVDZ              selected for orbital group  1
 Library entry C      D cc-pVDZ              selected for orbital group  1
 Library entry O      S cc-pVDZ              selected for orbital group  2
 Library entry O      P cc-pVDZ              selected for orbital group  2
 Library entry O      D cc-pVDZ              selected for orbital group  2
 Library entry H      S cc-pVDZ              selected for orbital group  3
 Library entry H      P cc-pVDZ              selected for orbital group  3

1PROGRAM * SEWARD (Integral evaluation for generally contracted gaussian basis sets)     Author: Roland Lindh, 1990

 Geometry written to block  1 of record 700


 Point group  C1  



 ATOMIC COORDINATES

 NR  ATOM    CHARGE       X              Y              Z

   1  C       6.00    3.357976046    1.344348918   -0.089443368
   2  C       6.00    0.929389944   -0.113370094   -0.371319661
   3  C       6.00    0.852094903   -2.903439578    0.191690688
   4  O       8.00   -1.059910817    1.374286846    0.480827648
   5  O       8.00   -3.473396988    0.174711354   -0.227787341
   6  H       1.00    4.885300742    0.402989478   -1.155538865
   7  H       1.00    3.138642530    3.291741221   -0.806518339
   8  H       1.00    3.959442067    1.460980803    1.922844688
   9  H       1.00   -0.955579467   -3.747298906   -0.415508576
  10  H       1.00    2.420880861   -3.870250146   -0.787864750
  11  H       1.00    1.060242551   -3.249486012    2.258089224
  12  H       1.00   -3.756725055    1.041301721   -1.827638415

 Bond lengths in Bohr (Angstrom)

 1-2  2.846476668  1-6  2.086968599  1-7  2.086777537  1-8  2.103489385  2-3  2.847357178
     ( 1.506290578)     ( 1.104376218)     ( 1.104275113)     ( 1.113118642)     ( 1.506756524)

  2- 4  2.626137035   3- 9  2.085300011   3-10  2.086945355   3-11  2.105487233   4- 5  2.786760137
       ( 1.389691866)       ( 1.103493240)       ( 1.104363918)       ( 1.114175858)       ( 1.474689952)

  5-12  1.841406288
       ( 0.974430240)

 Bond angles

  1-2-3  120.35726316   1-2-4  108.90844623   2-1-6  110.04847094   2-1-7  110.74461741

  2- 1- 8  111.53606799   2- 3- 9  111.25290992   2- 3-10  109.92132274   2- 3-11  110.63565528

  2- 4- 5  109.24946991   3- 2- 4  118.05762328   4- 5-12   98.71968423   6- 1- 7  108.80332842

  6- 1- 8  107.72425330   7- 1- 8  107.88091708   9- 3-10  109.11664746   9- 3-11  107.75596738

 10- 3-11  108.07157528

 NUCLEAR CHARGE:                   41
 NUMBER OF PRIMITIVE AOS:         184
 NUMBER OF SYMMETRY AOS:          179
 NUMBER OF CONTRACTIONS:          105   ( 105A   )
 NUMBER OF CORE ORBITALS:           5   (   5A   )
 NUMBER OF VALENCE ORBITALS:       27   (  27A   )


 NUCLEAR REPULSION ENERGY  183.21778305


 Eigenvalues of metric

         1 0.345E-02 0.435E-02 0.105E-01 0.141E-01 0.182E-01 0.214E-01 0.331E-01 0.345E-01


 Contracted 2-electron integrals neglected if value below      1.0D-16
 AO integral compression algorithm  1   Integral accuracy      1.0D-16

     127.664 MB (compressed) written to integral file ( 93.2%)

     Node minimum: 35.652 MB, node maximum: 55.837 MB


 NUMBER OF SORTED TWO-ELECTRON INTEGRALS:    5164320.     BUFFER LENGTH:  32768
 NUMBER OF SEGMENTS:   1  SEGMENT LENGTH:    5164320      RECORD LENGTH: 524288

 Memory used in sort:       5.72 MW

 SORT1 READ    17075251. AND WROTE     5135917. INTEGRALS IN     15 RECORDS. CPU TIME:     0.36 SEC, REAL TIME:     0.40 SEC
 SORT2 READ    15396668. AND WROTE    15487395. INTEGRALS IN    414 RECORDS. CPU TIME:     0.12 SEC, REAL TIME:     0.15 SEC

 Node minimum:     5160610.  Node maximum:     5164320. integrals

 OPERATOR DM      FOR CENTER  0  COORDINATES:    0.000000    0.000000    0.000000


 **********************************************************************************************************************************
 DATASETS  * FILE   NREC   LENGTH (MB)   RECORD NAMES
              1      18        3.17       500      610      700      900      950      970     1000      129      960     1100   
                                          VAR    BASINP    GEOM    SYMINP    ZMAT    AOBASIS   BASIS     P2S    ABASIS      S 
                                         1400     1410     1200     1210     1080     1600     1650     1700   
                                           T        V       H0       H01     AOSYM     SMH    MOLCAS    OPER   

 PROGRAMS   *        TOTAL       INT
 CPU TIMES  *         1.42      1.38
 REAL TIME  *         1.78 SEC
 DISK USED  *       317.23 MB      
 GA USED    *         0.00 MB       (max)       0.00 MB       (current)
 **********************************************************************************************************************************

1PROGRAM * RHF-SCF (OPEN SHELL)       Authors: W. Meyer, H.-J. Werner


 NUMBER OF ELECTRONS:      21+   20-    SPACE SYMMETRY=1    SPIN SYMMETRY: Doublet 
 CONVERGENCE THRESHOLDS:    1.00E-10 (Density)    1.00E-11 (Energy)
 MAX. NUMBER OF ITERATIONS:      200
 INTERPOLATION TYPE:            DIIS
 INTERPOLATION STEPS:              2 (START)      1 (STEP)
 LEVEL SHIFTS:                 -0.30 (CLOSED)  0.00 (OPEN) 



 Orbital guess generated from atomic densities. Full valence occupancy:   32

 Molecular orbital dump at record        2100.2

 ITERATION    DDIFF          GRAD             ENERGY        2-EL.EN.            DIPOLE MOMENTS         DIIS
    1      0.000D+00      0.000D+00      -267.17825178    555.807040    0.56898    0.04910   -0.74936    0
    2      0.000D+00      0.617D-02      -267.24894333    555.730162    0.41437   -0.13124   -0.59905    1
    3      0.928D-02      0.214D-02      -267.26112057    555.647799    0.39428   -0.05925   -0.62647    2
    4      0.336D-02      0.912D-03      -267.26472977    555.800223    0.37985   -0.09938   -0.64292    3
    5      0.186D-02      0.364D-03      -267.26529903    555.771633    0.38246   -0.09288   -0.63591    4
    6      0.792D-03      0.110D-03      -267.26537551    555.757857    0.38074   -0.09268   -0.63866    5
    7      0.277D-03      0.511D-04      -267.26539568    555.754856    0.38003   -0.09243   -0.63815    6
    8      0.144D-03      0.273D-04      -267.26540175    555.752905    0.38030   -0.09254   -0.63837    7
    9      0.925D-04      0.115D-04      -267.26540266    555.753221    0.38049   -0.09250   -0.63812    8
   10      0.366D-04      0.501D-05      -267.26540282    555.753833    0.38075   -0.09251   -0.63819    9
   11      0.146D-04      0.197D-05      -267.26540285    555.753674    0.38080   -0.09251   -0.63819    9
   12      0.651D-05      0.671D-06      -267.26540285    555.753809    0.38082   -0.09251   -0.63819    9
   13      0.227D-05      0.227D-06      -267.26540285    555.753725    0.38082   -0.09251   -0.63819    9
   14      0.633D-06      0.758D-07      -267.26540285    555.753733    0.38082   -0.09251   -0.63819    9
   15      0.193D-06      0.300D-07      -267.26540285    555.753729    0.38082   -0.09251   -0.63819    9
   16      0.826D-07      0.145D-07      -267.26540285    555.753731    0.38082   -0.09251   -0.63819    9
   17      0.374D-07      0.751D-08      -267.26540285    555.753731    0.38082   -0.09251   -0.63819    9
   18      0.222D-07      0.342D-08      -267.26540285    555.753731    0.38082   -0.09251   -0.63819    9
   19      0.114D-07      0.133D-08      -267.26540285    555.753731    0.38082   -0.09251   -0.63819    9
   20      0.444D-08      0.568D-09      -267.26540285    555.753731    0.38082   -0.09251   -0.63819    9
   21      0.166D-08      0.287D-09      -267.26540285    555.753731    0.38082   -0.09251   -0.63819    9
   22      0.755D-09      0.162D-09      -267.26540285    555.753731    0.38082   -0.09251   -0.63819    9
   23      0.446D-09      0.796D-10      -267.26540285    555.753731    0.38082   -0.09251   -0.63819    9
   24      0.264D-09      0.317D-10      -267.26540285    555.753731    0.38082   -0.09251   -0.63819    9
   25      0.934D-10      0.129D-10      -267.26540285    555.753731    0.38082   -0.09251   -0.63819    0

 Final alpha occupancy:  21
 Final beta  occupancy:  20

 !RHF STATE 1.1 Energy               -267.265402849869
 Nuclear energy                       183.21778305
 One-electron energy                 -728.36005138
 Two-electron energy                  277.87686549
 Virial quotient                       -1.00155050
 !RHF STATE 1.1 Dipole moment           0.38082124    -0.09250914    -0.63818752
 Dipole moment /Debye                   0.96788765    -0.23511938    -1.62200463

 Orbital energies:

         1.1          2.1          3.1          4.1          5.1          6.1          7.1          8.1          9.1         10.1
    -20.630483   -20.628827   -11.279291   -11.237665   -11.232223    -1.470140    -1.240694    -1.023236    -0.945402    -0.768522

        11.1         12.1         13.1         14.1         15.1         16.1         17.1         18.1         19.1         20.1
     -0.704588    -0.642964    -0.626748    -0.588873    -0.545005    -0.543491    -0.539145    -0.516955    -0.493019    -0.469727

        21.1         22.1         23.1
     -0.352319     0.181296     0.183584


 **********************************************************************************************************************************
 DATASETS  * FILE   NREC   LENGTH (MB)   RECORD NAMES
              1      18        3.17       500      610      700      900      950      970     1000      129      960     1100   
                                          VAR    BASINP    GEOM    SYMINP    ZMAT    AOBASIS   BASIS     P2S    ABASIS      S 
                                         1400     1410     1200     1210     1080     1600     1650     1700   
                                           T        V       H0       H01     AOSYM     SMH    MOLCAS    OPER   

              2       3        0.77       700     1000     2100   
                                         GEOM     BASIS     RHF  

 PROGRAMS   *        TOTAL       RHF       INT
 CPU TIMES  *         3.20      1.78      1.38
 REAL TIME  *         3.75 SEC
 DISK USED  *       333.80 MB      
 SF USED    *         0.04 MB      
 GA USED    *         0.00 MB       (max)       0.00 MB       (current)
 **********************************************************************************************************************************


1PROGRAM * CCSD (Unrestricted open-shell coupled cluster)     Authors: C. Hampel, H.-J. Werner, 1991, M. Deegan, P.J. Knowles, 1992


 Convergence thresholds:  THRVAR = 1.00D-08  THRDEN = 1.00D-10

 CCSD(T)     terms to be evaluated (factor= 1.000)


 Number of core orbitals:           5 (   5 )
 Number of closed-shell orbitals:  15 (  15 )
 Number of active  orbitals:        1 (   1 )
 Number of external orbitals:      84 (  84 )

 Memory could be reduced to 24.91 Mwords without degradation in triples

 Number of N-1 electron functions:              31
 Number of N-2 electron functions:             465
 Number of singly external CSFs:              2635
 Number of doubly external CSFs:           2537250
 Total number of CSFs:                     2539885

 Molecular orbitals read from record     2100.2  Type=RHF/CANONICAL (state 1.1)

 Integral transformation finished. Total CPU:   1.24 sec, npass=  1  Memory used:  12.63 MW

 Starting RMP2 calculation

 ITER.      SQ.NORM     CORR.ENERGY   TOTAL ENERGY   ENERGY CHANGE        DEN1      VAR(S)    VAR(P)  DIIS     TIME
   1      1.24301803    -0.78636750  -268.05177035    -0.78636750    -0.00304951  0.20D-04  0.11D-02  1  1     1.67
   2      1.24565907    -0.78965619  -268.05505904    -0.00328868    -0.00000474  0.54D-06  0.19D-05  2  2     2.04
   3      1.24572461    -0.78969824  -268.05510109    -0.00004206    -0.00000003  0.16D-07  0.68D-08  3  3     2.43
   4      1.24572556    -0.78969825  -268.05510110    -0.00000000    -0.00000000  0.27D-09  0.38D-10  4  4     2.86
   5      1.24572565    -0.78969828  -268.05510113    -0.00000003    -0.00000000  0.25D-11  0.65D-12  5  5     3.31
   6      1.24572566    -0.78969828  -268.05510113    -0.00000001    -0.00000000  0.28D-13  0.86D-14  6  6     3.80
   7      1.24572566    -0.78969828  -268.05510113     0.00000000    -0.00000000  0.47D-15  0.12D-15  6  1     4.29
   8      1.24572566    -0.78969828  -268.05510113     0.00000000    -0.00000000  0.59D-17  0.13D-17  6  2     4.78

 Norm of t1 vector:      0.03893097      S-energy:    -0.00227144      T1 diagnostic:  0.00055025
 Norm of t2 vector:      0.49417612      P-energy:    -0.78742684
                                         Alpha-Beta:  -0.59340712
                                         Alpha-Alpha: -0.10094085
                                         Beta-Beta:   -0.09307888

 Spin contamination <S**2-Sz**2-Sz>     0.00104039
  Reference energy                   -267.265402849871
  RHF-RMP2 correlation energy          -0.789698284465
 !RHF-RMP2 energy                    -268.055101134335

 Starting UCCSD calculation

 ITER.      SQ.NORM     CORR.ENERGY   TOTAL ENERGY   ENERGY CHANGE        DEN1      VAR(S)    VAR(P)  DIIS     TIME
   1      1.26278858    -0.80903820  -268.07444105    -0.80903820    -0.02515491  0.38D-02  0.59D-02  1  1    12.49
   2      1.29155960    -0.83644565  -268.10184850    -0.02740746    -0.00201105  0.22D-03  0.66D-03  2  2    20.19
   3      1.30149997    -0.84094317  -268.10634602    -0.00449752    -0.00032467  0.19D-03  0.56D-04  3  3    27.97
   4      1.30641371    -0.84242034  -268.10782319    -0.00147717    -0.00007210  0.43D-04  0.14D-04  4  4    35.75
   5      1.30914427    -0.84280852  -268.10821137    -0.00038818    -0.00002368  0.19D-04  0.32D-05  5  5    43.46
   6      1.31108395    -0.84301305  -268.10841590    -0.00020453    -0.00000646  0.42D-05  0.12D-05  6  6    49.96
   7      1.31203339    -0.84307185  -268.10847470    -0.00005879    -0.00000208  0.14D-05  0.37D-06  6  2    56.45
   8      1.31247495    -0.84311453  -268.10851737    -0.00004268    -0.00000065  0.45D-06  0.11D-06  6  1    62.94
   9      1.31266013    -0.84311911  -268.10852196    -0.00000458    -0.00000022  0.15D-06  0.35D-07  6  4    69.83
  10      1.31272330    -0.84312204  -268.10852489    -0.00000293    -0.00000005  0.35D-07  0.95D-08  6  3    76.87
  11      1.31275280    -0.84312078  -268.10852363     0.00000126    -0.00000002  0.13D-07  0.28D-08  6  5    82.39
  12      1.31276318    -0.84312052  -268.10852337     0.00000026    -0.00000000  0.26D-08  0.95D-09  6  6    87.86
  13      1.31276203    -0.84311960  -268.10852245     0.00000092    -0.00000000  0.96D-09  0.28D-09  6  2    93.34
  14      1.31275682    -0.84311876  -268.10852161     0.00000084    -0.00000000  0.21D-09  0.67D-10  6  1    98.87
  15      1.31275275    -0.84311817  -268.10852102     0.00000059    -0.00000000  0.78D-10  0.19D-10  6  4   104.34
  16      1.31274956    -0.84311779  -268.10852064     0.00000038    -0.00000000  0.28D-10  0.63D-11  6  3   109.84
  17      1.31274736    -0.84311755  -268.10852040     0.00000024    -0.00000000  0.10D-10  0.24D-11  6  5   115.36
  18      1.31274646    -0.84311749  -268.10852034     0.00000006    -0.00000000  0.41D-11  0.87D-12  6  6   120.86
  19      1.31274585    -0.84311745  -268.10852030     0.00000003    -0.00000000  0.16D-11  0.37D-12  6  2   126.35
  20      1.31274553    -0.84311744  -268.10852029     0.00000001    -0.00000000  0.60D-12  0.13D-12  6  1   131.85
  21      1.31274537    -0.84311743  -268.10852028     0.00000001    -0.00000000  0.28D-12  0.58D-13  6  4   137.35
  22      1.31274524    -0.84311742  -268.10852027     0.00000001    -0.00000000  0.74D-13  0.21D-13  6  3   142.84
  23      1.31274519    -0.84311742  -268.10852027     0.00000000    -0.00000000  0.21D-13  0.63D-14  6  5   148.34
  24      1.31274518    -0.84311742  -268.10852027    -0.00000000    -0.00000000  0.67D-14  0.23D-14  6  6   153.85
  25      1.31274518    -0.84311742  -268.10852027    -0.00000000    -0.00000000  0.21D-14  0.52D-15  6  2   159.40
  26      1.31274519    -0.84311742  -268.10852027    -0.00000000    -0.00000000  0.77D-15  0.15D-15  6  1   164.90
  27      1.31274520    -0.84311742  -268.10852027    -0.00000000    -0.00000000  0.20D-15  0.62D-16  6  3   170.41
  28      1.31274521    -0.84311742  -268.10852027    -0.00000000    -0.00000000  0.30D-16  0.11D-16  6  4   175.89
  29      1.31274521    -0.84311742  -268.10852027    -0.00000000    -0.00000000  0.70D-17  0.29D-17  6  5   181.38
  30      1.31274521    -0.84311742  -268.10852027    -0.00000000    -0.00000000  0.15D-17  0.54D-18  6  6   186.89
  31      1.31274521    -0.84311743  -268.10852027    -0.00000000    -0.00000000  0.35D-18  0.10D-18  6  2   192.38

 Norm of t1 vector:      0.13872106      S-energy:    -0.00282110      T1 diagnostic:  0.01616975
                                                                       D1 diagnostic:  0.06282274
 Norm of t2 vector:      0.54175795      P-energy:    -0.84029633
                                         Alpha-Beta:  -0.66485150
                                         Alpha-Alpha: -0.09147430
                                         Beta-Beta:   -0.08397053

 Spin contamination <S**2-Sz**2-Sz>     0.00217180

 Memory could be reduced to 28.85 Mwords without degradation in triples
 

 RESULTS
 =======

  Reference energy                   -267.265402849871
  UCCSD singles energy                 -0.002821096505
  UCCSD pair energy                    -0.840296328501
  UCCSD correlation energy             -0.843117425006
  Triples (T) contribution             -0.024974589945
  Total correlation energy             -0.868092014952
 
  RHF-UCCSD energy                   -268.108520274877
  RHF-UCCSD[T] energy                -268.134830894239
  RHF-UCCSD-T energy                 -268.133073305280
 !RHF-UCCSD(T) energy                -268.133494864822

 Program statistics:

 Available memory in ccsd:               999997692
 Min. memory needed in ccsd:               7337057
 Max. memory used in ccsd:                10523002
 Max. memory used in cckext:              10867977 (31 integral passes)
 Max. memory used in cckint:              12633073 ( 1 integral passes)



 **********************************************************************************************************************************
 DATASETS  * FILE   NREC   LENGTH (MB)   RECORD NAMES
              1      18        3.17       500      610      700      900      950      970     1000      129      960     1100   
                                          VAR    BASINP    GEOM    SYMINP    ZMAT    AOBASIS   BASIS     P2S    ABASIS      S 
                                         1400     1410     1200     1210     1080     1600     1650     1700   
                                           T        V       H0       H01     AOSYM     SMH    MOLCAS    OPER   

              2       3        0.77       700     1000     2100   
                                         GEOM     BASIS     RHF  

 PROGRAMS   *        TOTAL  UCCSD(T)       RHF       INT
 CPU TIMES  *       241.75    238.55      1.78      1.38
 REAL TIME  *       256.86 SEC
 DISK USED  *         1.30 GB      
 SF USED    *       553.73 MB      
 GA USED    *         0.00 MB       (max)       0.00 MB       (current)
 **********************************************************************************************************************************

        UCCSD(T)        RHF-SCF 
   -268.13349486   -267.26540285
 **********************************************************************************************************************************
 Variable memory released
