
 Primary working directories    : /tmp/320938.264.gen4.q
 Secondary working directories  : /tmp/320938.264.gen4.q
 Wavefunction directory         : /home/vulcan/mel64643/wfu/
 Main file repository           : /tmp/320938.264.gen4.q/

 ARCHNAME  : Linux/x86_64
 FC        : /opt/intel/compilers_and_libraries_2016.1.150/linux/bin/intel64/ifort
 FCVERSION : 16.0.1
 BLASLIB   : -mkl
 id        : ccgc

 Nodes     nprocs
 n064         3
 Number of processes for MPI-2 version of Molpro:   nprocs(total)=    4   nprocs(compute)=    3   nprocs(helper)=    1
 ga_uses_ma=false, calling ma_init with nominal heap.
 GA-space will be limited to   8.0 MW (determined by -G option)

 Using customized tuning parameters: mindgm=10; mindgv=16; mindgc=4; mindgr=1; noblas=0; mincuda=1000; minvec=7
 default implementation of scratch files=sf  

 ***,Frequencies for min3
 memory,1000,m
 gthresh,energy=1.0d-10,orbital=1.0d-10,oneint=1.0d-16,twoint=1.0d-16,optgrad=1.0d-6,compress=1.0d-13
 geomtyp=xyz
 
  geometry = {
  12
  arbitrary comment
     C    1.776964391707    0.711398808326   -0.047331391796
     C    0.491811976407   -0.059992870174   -0.196493901896
     C    0.450909202373   -1.536434052255    0.101438343178
     O   -0.560880647667    0.727241277701    0.254443032848
     O   -1.838042523805    0.092453266771   -0.120539869318
     H    2.587593006546    0.211117402197   -0.611564709087
     H    1.659908267261    1.742621146876   -0.426570280063
     H    2.094629487446    0.773728380285    1.017569758303
     H   -0.505709591146   -1.982849692260   -0.219989960695
     H    1.281034602582   -2.047437526938   -0.417202741847
     H    0.561079176987   -1.719352198147    1.194758200857
     H   -1.988713524949    0.550903364803   -0.966763617196
  }
 
 basis=cc-pvdz
 {rhf;maxit,200}
 {uccsd(t);maxit,200}

 Variables initialized (661), CPU time= 0.00 sec
 Commands  initialized (458), CPU time= 0.01 sec, 486 directives.
 Default parameters read. Elapsed time= 0.07 sec

 Checking input...
 Passed
1


                                         ***  PROGRAM SYSTEM MOLPRO  ***
                         Copyright, University College Cardiff Consultants Limited, 2008

                                    Version 2010.1 linked May 16 2016 07:17:05


 **********************************************************************************************************************************
 LABEL *   Frequencies for min3                                                          
 Linux-4.4.3/n064(x86_64) 64 bit mpp version                                             DATE: 07-Mar-20          TIME: 02:29:49  
 **********************************************************************************************************************************

 SHA1:             9e8077add272b0f3cad6f7df79ec5211205f459d
 **********************************************************************************************************************************

 THRESHOLDS:

 ZERO    =  1.00D-12  ONEINT  =  1.00D-16  TWOINT  =  1.00D-16  PREFAC  =  1.00D-14  LOCALI  =  1.00D-09  EORDER  =  1.00D-04
 ENERGY  =  1.00D-10  ETEST   =  0.00D+00  EDENS   =  0.00D+00  THRDEDEF=  1.00D-06  GRADIENT=  1.00D-02  STEP    =  1.00D-03
 ORBITAL =  1.00D-10  CIVEC   =  1.00D-05  COEFF   =  1.00D-04  PRINTCI =  5.00D-02  PUNCHCI =  9.90D+01  OPTGRAD =  1.00D-06
 OPTENERG=  1.00D-06  OPTSTEP =  3.00D-04  THRGRAD =  1.00D-10  COMPRESS=  1.00D-13  VARMIN  =  1.00D-07  VARMAX  =  1.00D-03
 THRDOUB =  0.00D+00  THRDIV  =  1.00D-05  THRRED  =  1.00D-07  THRPSP  =  1.00D+00  THRDC   =  1.00D-10  THRCS   =  1.00D-10
 THRNRM  =  1.00D-08  THREQ   =  0.00D+00  THRDE   =  1.00D+00  THRREF  =  1.00D-05  SPARFAC =  1.00D+00  THRDLP  =  1.00D-07
 THRDIA  =  1.00D-10  THRDLS  =  1.00D-07  THRGPS  =  0.00D+00  THRKEX  =  0.00D+00  THRDIS  =  2.00D-01  THRVAR  =  1.00D-10
 THRLOC  =  1.00D-06  THRGAP  =  1.00D-06  THRLOCT = -1.00D+00  THRGAPT = -1.00D+00  THRORB  =  1.00D-06  THRMLTP =  0.00D+00
 THRCPQCI=  1.00D-10  KEXTA   =  0.00D+00  THRCOARS=  0.00D+00  SYMTOL  =  1.00D-06  GRADTOL =  1.00D-06  THROVL  =  1.00D-08
 THRORTH =  1.00D-08  GRID    =  1.00D-06  GRIDMAX =  1.00D-03  DTMAX   =  0.00D+00

 SETTING GEOMTYP        =    XYZ

 Variable memory set to 1000000000 words,  buffer space   230000 words

 SETTING BASIS          =    CC-PVDZ


 Recomputing integrals since basis changed


 Using spherical harmonics

 Library entry C      S cc-pVDZ              selected for orbital group  1
 Library entry C      P cc-pVDZ              selected for orbital group  1
 Library entry C      D cc-pVDZ              selected for orbital group  1
 Library entry O      S cc-pVDZ              selected for orbital group  2
 Library entry O      P cc-pVDZ              selected for orbital group  2
 Library entry O      D cc-pVDZ              selected for orbital group  2
 Library entry H      S cc-pVDZ              selected for orbital group  3
 Library entry H      P cc-pVDZ              selected for orbital group  3

1PROGRAM * SEWARD (Integral evaluation for generally contracted gaussian basis sets)     Author: Roland Lindh, 1990

 Geometry written to block  1 of record 700


 Point group  C1  



 ATOMIC COORDINATES

 NR  ATOM    CHARGE       X              Y              Z

   1  C       6.00    3.357976046    1.344348918   -0.089443368
   2  C       6.00    0.929389944   -0.113370094   -0.371319661
   3  C       6.00    0.852094903   -2.903439578    0.191690688
   4  O       8.00   -1.059910817    1.374286846    0.480827648
   5  O       8.00   -3.473396988    0.174711354   -0.227787341
   6  H       1.00    4.889842122    0.398954072   -1.155689812
   7  H       1.00    3.136772028    3.293076718   -0.806101005
   8  H       1.00    3.958276078    1.462134739    1.922928163
   9  H       1.00   -0.955652629   -3.747042878   -0.415720777
  10  H       1.00    2.420804564   -3.869096197   -0.788398923
  11  H       1.00    1.060285983   -3.249104778    2.257765793
  12  H       1.00   -3.758123916    1.041056484   -1.826918470

 Bond lengths in Bohr (Angstrom)

 1-2  2.846476668  1-6  2.092191810  1-7  2.088077926  1-8  2.103300456  2-3  2.847357178
     ( 1.506290578)     ( 1.107140223)     ( 1.104963249)     ( 1.113018665)     ( 1.506756524)

  2- 4  2.626137035   3- 9  2.085321643   3-10  2.086604503   3-11  2.105111469   4- 5  2.786760137
       ( 1.389691866)       ( 1.103504687)       ( 1.104183547)       ( 1.113977012)       ( 1.474689952)

  5-12  1.840881223
       ( 0.974152388)

 Bond angles

  1-2-3  120.35726316   1-2-4  108.90844623   2-1-6  110.04854476   2-1-7  110.70556146

  2- 1- 8  111.52651409   2- 3- 9  111.24410455   2- 3-10  109.88866895   2- 3-11  110.62674825

  2- 4- 5  109.24946991   3- 2- 4  118.05762328   4- 5-12   98.75789966   6- 1- 7  108.92708377

  6- 1- 8  107.69397186   7- 1- 8  107.83930352   9- 3-10  109.12896086   9- 3-11  107.76927606

 10- 3-11  108.09857812

 NUCLEAR CHARGE:                   41
 NUMBER OF PRIMITIVE AOS:         184
 NUMBER OF SYMMETRY AOS:          179
 NUMBER OF CONTRACTIONS:          105   ( 105A   )
 NUMBER OF CORE ORBITALS:           5   (   5A   )
 NUMBER OF VALENCE ORBITALS:       27   (  27A   )


 NUCLEAR REPULSION ENERGY  183.20882065


 Eigenvalues of metric

         1 0.345E-02 0.435E-02 0.105E-01 0.141E-01 0.182E-01 0.214E-01 0.332E-01 0.345E-01


 Contracted 2-electron integrals neglected if value below      1.0D-16
 AO integral compression algorithm  1   Integral accuracy      1.0D-16

     127.664 MB (compressed) written to integral file ( 93.2%)

     Node minimum: 31.457 MB, node maximum: 50.070 MB


 NUMBER OF SORTED TWO-ELECTRON INTEGRALS:    5164320.     BUFFER LENGTH:  32768
 NUMBER OF SEGMENTS:   1  SEGMENT LENGTH:    5164320      RECORD LENGTH: 524288

 Memory used in sort:       5.72 MW

 SORT1 READ    17075251. AND WROTE     5135784. INTEGRALS IN     15 RECORDS. CPU TIME:     0.35 SEC, REAL TIME:     0.38 SEC
 SORT2 READ    15396267. AND WROTE    15487395. INTEGRALS IN    360 RECORDS. CPU TIME:     0.10 SEC, REAL TIME:     0.15 SEC

 Node minimum:     5160610.  Node maximum:     5164320. integrals

 OPERATOR DM      FOR CENTER  0  COORDINATES:    0.000000    0.000000    0.000000


 **********************************************************************************************************************************
 DATASETS  * FILE   NREC   LENGTH (MB)   RECORD NAMES
              1      18        3.17       500      610      700      900      950      970     1000      129      960     1100   
                                          VAR    BASINP    GEOM    SYMINP    ZMAT    AOBASIS   BASIS     P2S    ABASIS      S 
                                         1400     1410     1200     1210     1080     1600     1650     1700   
                                           T        V       H0       H01     AOSYM     SMH    MOLCAS    OPER   

 PROGRAMS   *        TOTAL       INT
 CPU TIMES  *         1.22      1.13
 REAL TIME  *         1.65 SEC
 DISK USED  *       315.23 MB      
 GA USED    *         0.00 MB       (max)       0.00 MB       (current)
 **********************************************************************************************************************************

1PROGRAM * RHF-SCF (OPEN SHELL)       Authors: W. Meyer, H.-J. Werner


 NUMBER OF ELECTRONS:      21+   20-    SPACE SYMMETRY=1    SPIN SYMMETRY: Doublet 
 CONVERGENCE THRESHOLDS:    1.00E-10 (Density)    1.00E-11 (Energy)
 MAX. NUMBER OF ITERATIONS:      200
 INTERPOLATION TYPE:            DIIS
 INTERPOLATION STEPS:              2 (START)      1 (STEP)
 LEVEL SHIFTS:                 -0.30 (CLOSED)  0.00 (OPEN) 



 Orbital guess generated from atomic densities. Full valence occupancy:   32

 Molecular orbital dump at record        2100.2

 ITERATION    DDIFF          GRAD             ENERGY        2-EL.EN.            DIPOLE MOMENTS         DIIS
    1      0.000D+00      0.000D+00      -267.17822309    555.791061    0.56986    0.04911   -0.74938    0
    2      0.000D+00      0.617D-02      -267.24889758    555.712980    0.41384   -0.13117   -0.59849    1
    3      0.927D-02      0.214D-02      -267.26107946    555.631080    0.39349   -0.05916   -0.62576    2
    4      0.336D-02      0.912D-03      -267.26469100    555.783333    0.37885   -0.09925   -0.64211    3
    5      0.186D-02      0.364D-03      -267.26526080    555.754713    0.38136   -0.09276   -0.63506    4
    6      0.793D-03      0.110D-03      -267.26533741    555.740984    0.37961   -0.09256   -0.63780    5
    7      0.277D-03      0.512D-04      -267.26535760    555.737970    0.37888   -0.09230   -0.63729    6
    8      0.144D-03      0.273D-04      -267.26536367    555.736030    0.37914   -0.09242   -0.63751    7
    9      0.925D-04      0.115D-04      -267.26536459    555.736344    0.37933   -0.09237   -0.63727    8
   10      0.366D-04      0.502D-05      -267.26536475    555.736956    0.37958   -0.09239   -0.63733    9
   11      0.147D-04      0.197D-05      -267.26536478    555.736797    0.37963   -0.09238   -0.63734    9
   12      0.652D-05      0.672D-06      -267.26536478    555.736932    0.37966   -0.09238   -0.63733    9
   13      0.228D-05      0.227D-06      -267.26536478    555.736847    0.37966   -0.09238   -0.63733    9
   14      0.633D-06      0.760D-07      -267.26536478    555.736856    0.37966   -0.09238   -0.63733    9
   15      0.193D-06      0.301D-07      -267.26536478    555.736852    0.37966   -0.09238   -0.63733    9
   16      0.828D-07      0.146D-07      -267.26536478    555.736854    0.37966   -0.09238   -0.63733    9
   17      0.376D-07      0.753D-08      -267.26536478    555.736854    0.37966   -0.09238   -0.63733    9
   18      0.223D-07      0.343D-08      -267.26536478    555.736854    0.37966   -0.09238   -0.63733    9
   19      0.115D-07      0.134D-08      -267.26536478    555.736854    0.37966   -0.09238   -0.63733    9
   20      0.445D-08      0.570D-09      -267.26536478    555.736854    0.37966   -0.09238   -0.63733    9
   21      0.166D-08      0.288D-09      -267.26536478    555.736854    0.37966   -0.09238   -0.63733    9
   22      0.758D-09      0.162D-09      -267.26536478    555.736854    0.37966   -0.09238   -0.63733    9
   23      0.448D-09      0.800D-10      -267.26536478    555.736854    0.37966   -0.09238   -0.63733    9
   24      0.265D-09      0.319D-10      -267.26536478    555.736854    0.37966   -0.09238   -0.63733    9
   25      0.938D-10      0.130D-10      -267.26536478    555.736854    0.37966   -0.09238   -0.63733    0

 Final alpha occupancy:  21
 Final beta  occupancy:  20

 !RHF STATE 1.1 Energy               -267.265364780168
 Nuclear energy                       183.20882065
 One-electron energy                 -728.34261226
 Two-electron energy                  277.86842683
 Virial quotient                       -1.00156375
 !RHF STATE 1.1 Dipole moment           0.37966034    -0.09238433    -0.63732944
 Dipole moment /Debye                   0.96493713    -0.23480216    -1.61982375

 Orbital energies:

         1.1          2.1          3.1          4.1          5.1          6.1          7.1          8.1          9.1         10.1
    -20.630513   -20.628811   -11.279291   -11.238036   -11.232182    -1.470164    -1.240771    -1.023162    -0.945241    -0.768439

        11.1         12.1         13.1         14.1         15.1         16.1         17.1         18.1         19.1         20.1
     -0.704642    -0.642932    -0.626673    -0.588901    -0.544985    -0.543472    -0.538847    -0.516916    -0.493021    -0.469723

        21.1         22.1         23.1
     -0.352314     0.181285     0.183463


 **********************************************************************************************************************************
 DATASETS  * FILE   NREC   LENGTH (MB)   RECORD NAMES
              1      18        3.17       500      610      700      900      950      970     1000      129      960     1100   
                                          VAR    BASINP    GEOM    SYMINP    ZMAT    AOBASIS   BASIS     P2S    ABASIS      S 
                                         1400     1410     1200     1210     1080     1600     1650     1700   
                                           T        V       H0       H01     AOSYM     SMH    MOLCAS    OPER   

              2       3        0.77       700     1000     2100   
                                         GEOM     BASIS     RHF  

 PROGRAMS   *        TOTAL       RHF       INT
 CPU TIMES  *         2.95      1.73      1.13
 REAL TIME  *         3.59 SEC
 DISK USED  *       331.80 MB      
 SF USED    *         0.04 MB      
 GA USED    *         0.00 MB       (max)       0.00 MB       (current)
 **********************************************************************************************************************************


1PROGRAM * CCSD (Unrestricted open-shell coupled cluster)     Authors: C. Hampel, H.-J. Werner, 1991, M. Deegan, P.J. Knowles, 1992


 Convergence thresholds:  THRVAR = 1.00D-08  THRDEN = 1.00D-10

 CCSD(T)     terms to be evaluated (factor= 1.000)


 Number of core orbitals:           5 (   5 )
 Number of closed-shell orbitals:  15 (  15 )
 Number of active  orbitals:        1 (   1 )
 Number of external orbitals:      84 (  84 )

 Memory could be reduced to 24.91 Mwords without degradation in triples

 Number of N-1 electron functions:              31
 Number of N-2 electron functions:             465
 Number of singly external CSFs:              2635
 Number of doubly external CSFs:           2537250
 Total number of CSFs:                     2539885

 Molecular orbitals read from record     2100.2  Type=RHF/CANONICAL (state 1.1)

 Integral transformation finished. Total CPU:   1.23 sec, npass=  1  Memory used:  12.63 MW

 Starting RMP2 calculation

 ITER.      SQ.NORM     CORR.ENERGY   TOTAL ENERGY   ENERGY CHANGE        DEN1      VAR(S)    VAR(P)  DIIS     TIME
   1      1.24305296    -0.78638796  -268.05175274    -0.78638796    -0.00305032  0.20D-04  0.11D-02  1  1     1.67
   2      1.24569506    -0.78967754  -268.05504232    -0.00328958    -0.00000474  0.54D-06  0.19D-05  2  2     2.03
   3      1.24576063    -0.78971961  -268.05508439    -0.00004207    -0.00000003  0.16D-07  0.68D-08  3  3     2.44
   4      1.24576158    -0.78971961  -268.05508439    -0.00000000    -0.00000000  0.27D-09  0.38D-10  4  4     2.86
   5      1.24576166    -0.78971965  -268.05508443    -0.00000003    -0.00000000  0.25D-11  0.65D-12  5  5     3.31
   6      1.24576168    -0.78971965  -268.05508443    -0.00000001    -0.00000000  0.28D-13  0.87D-14  6  6     3.80
   7      1.24576168    -0.78971965  -268.05508443     0.00000000    -0.00000000  0.47D-15  0.12D-15  6  1     4.30
   8      1.24576168    -0.78971965  -268.05508443     0.00000000    -0.00000000  0.60D-17  0.13D-17  6  2     4.80

 Norm of t1 vector:      0.03893072      S-energy:    -0.00227139      T1 diagnostic:  0.00055028
 Norm of t2 vector:      0.49421258      P-energy:    -0.78744826
                                         Alpha-Beta:  -0.59343084
                                         Alpha-Alpha: -0.10094009
                                         Beta-Beta:   -0.09307734

 Spin contamination <S**2-Sz**2-Sz>     0.00104029
  Reference energy                   -267.265364780169
  RHF-RMP2 correlation energy          -0.789719653472
 !RHF-RMP2 energy                    -268.055084433641

 Starting UCCSD calculation

 ITER.      SQ.NORM     CORR.ENERGY   TOTAL ENERGY   ENERGY CHANGE        DEN1      VAR(S)    VAR(P)  DIIS     TIME
   1      1.26283394    -0.80906291  -268.07442769    -0.80906291    -0.02515927  0.38D-02  0.59D-02  1  1    12.59
   2      1.29161657    -0.83647646  -268.10184124    -0.02741355    -0.00201151  0.22D-03  0.66D-03  2  2    20.32
   3      1.30156100    -0.84097595  -268.10634073    -0.00449949    -0.00032469  0.19D-03  0.56D-04  3  3    27.89
   4      1.30647504    -0.84245342  -268.10781820    -0.00147746    -0.00007210  0.43D-04  0.14D-04  4  4    35.53
   5      1.30920517    -0.84284160  -268.10820638    -0.00038818    -0.00002368  0.19D-04  0.32D-05  5  5    43.25
   6      1.31114491    -0.84304612  -268.10841090    -0.00020452    -0.00000646  0.42D-05  0.12D-05  6  6    50.92
   7      1.31209495    -0.84310494  -268.10846972    -0.00005882    -0.00000208  0.14D-05  0.37D-06  6  2    58.38
   8      1.31253703    -0.84314765  -268.10851243    -0.00004271    -0.00000065  0.45D-06  0.11D-06  6  1    64.82
   9      1.31272252    -0.84315224  -268.10851702    -0.00000459    -0.00000022  0.15D-06  0.35D-07  6  4    71.28
  10      1.31278583    -0.84315518  -268.10851996    -0.00000294    -0.00000005  0.35D-07  0.95D-08  6  3    77.46
  11      1.31281535    -0.84315392  -268.10851870     0.00000126    -0.00000002  0.13D-07  0.28D-08  6  5    83.70
  12      1.31282575    -0.84315366  -268.10851844     0.00000026    -0.00000000  0.26D-08  0.95D-09  6  6    89.17
  13      1.31282461    -0.84315274  -268.10851752     0.00000092    -0.00000000  0.96D-09  0.29D-09  6  2    94.70
  14      1.31281940    -0.84315190  -268.10851668     0.00000084    -0.00000000  0.21D-09  0.68D-10  6  1   100.19
  15      1.31281533    -0.84315131  -268.10851609     0.00000059    -0.00000000  0.78D-10  0.19D-10  6  4   105.67
  16      1.31281214    -0.84315093  -268.10851571     0.00000038    -0.00000000  0.28D-10  0.63D-11  6  3   111.18
  17      1.31280994    -0.84315069  -268.10851547     0.00000024    -0.00000000  0.10D-10  0.24D-11  6  5   116.69
  18      1.31280903    -0.84315063  -268.10851541     0.00000006    -0.00000000  0.41D-11  0.87D-12  6  6   122.18
  19      1.31280842    -0.84315059  -268.10851537     0.00000003    -0.00000000  0.16D-11  0.37D-12  6  2   127.67
  20      1.31280810    -0.84315058  -268.10851536     0.00000001    -0.00000000  0.60D-12  0.13D-12  6  1   133.15
  21      1.31280794    -0.84315057  -268.10851535     0.00000001    -0.00000000  0.28D-12  0.58D-13  6  4   138.63
  22      1.31280781    -0.84315056  -268.10851534     0.00000001    -0.00000000  0.74D-13  0.21D-13  6  3   145.69
  23      1.31280776    -0.84315056  -268.10851534     0.00000000    -0.00000000  0.22D-13  0.63D-14  6  5   153.37
  24      1.31280775    -0.84315056  -268.10851534    -0.00000000    -0.00000000  0.68D-14  0.23D-14  6  6   161.12
  25      1.31280775    -0.84315056  -268.10851534    -0.00000000    -0.00000000  0.21D-14  0.53D-15  6  2   168.87
  26      1.31280776    -0.84315056  -268.10851534    -0.00000000    -0.00000000  0.77D-15  0.15D-15  6  1   176.70
  27      1.31280777    -0.84315056  -268.10851534    -0.00000000    -0.00000000  0.20D-15  0.63D-16  6  3   184.73
  28      1.31280777    -0.84315056  -268.10851534    -0.00000000    -0.00000000  0.30D-16  0.11D-16  6  4   192.62
  29      1.31280778    -0.84315056  -268.10851534    -0.00000000    -0.00000000  0.71D-17  0.29D-17  6  5   200.01
  30      1.31280778    -0.84315056  -268.10851534    -0.00000000    -0.00000000  0.15D-17  0.54D-18  6  6   208.01
  31      1.31280778    -0.84315056  -268.10851534    -0.00000000    -0.00000000  0.35D-18  0.10D-18  6  2   216.02

 Norm of t1 vector:      0.13872009      S-energy:    -0.00282108      T1 diagnostic:  0.01616940
                                                                       D1 diagnostic:  0.06280635
 Norm of t2 vector:      0.54181594      P-energy:    -0.84032948
                                         Alpha-Beta:  -0.66489010
                                         Alpha-Alpha: -0.09147206
                                         Beta-Beta:   -0.08396732

 Spin contamination <S**2-Sz**2-Sz>     0.00217248

 Memory could be reduced to 28.85 Mwords without degradation in triples
 

 RESULTS
 =======

  Reference energy                   -267.265364780169
  UCCSD singles energy                 -0.002821082320
  UCCSD pair energy                    -0.840329480940
  UCCSD correlation energy             -0.843150563260
  Triples (T) contribution             -0.024978451924
  Total correlation energy             -0.868129015184
 
  RHF-UCCSD energy                   -268.108515343429
  RHF-UCCSD[T] energy                -268.134829808726
  RHF-UCCSD-T energy                 -268.133072224819
 !RHF-UCCSD(T) energy                -268.133493795353

 Program statistics:

 Available memory in ccsd:               999997692
 Min. memory needed in ccsd:               7337057
 Max. memory used in ccsd:                10523002
 Max. memory used in cckext:              10867977 (31 integral passes)
 Max. memory used in cckint:              12633073 ( 1 integral passes)



 **********************************************************************************************************************************
 DATASETS  * FILE   NREC   LENGTH (MB)   RECORD NAMES
              1      18        3.17       500      610      700      900      950      970     1000      129      960     1100   
                                          VAR    BASINP    GEOM    SYMINP    ZMAT    AOBASIS   BASIS     P2S    ABASIS      S 
                                         1400     1410     1200     1210     1080     1600     1650     1700   
                                           T        V       H0       H01     AOSYM     SMH    MOLCAS    OPER   

              2       3        0.77       700     1000     2100   
                                         GEOM     BASIS     RHF  

 PROGRAMS   *        TOTAL  UCCSD(T)       RHF       INT
 CPU TIMES  *       278.12    275.17      1.73      1.13
 REAL TIME  *       293.58 SEC
 DISK USED  *         1.30 GB      
 SF USED    *       553.73 MB      
 GA USED    *         0.00 MB       (max)       0.00 MB       (current)
 **********************************************************************************************************************************

        UCCSD(T)        RHF-SCF 
   -268.13349380   -267.26536478
 **********************************************************************************************************************************
 Variable memory released
