
 Primary working directories    : /tmp/320938.3.gen4.q
 Secondary working directories  : /tmp/320938.3.gen4.q
 Wavefunction directory         : /home/vulcan/mel64643/wfu/
 Main file repository           : /tmp/320938.3.gen4.q/

 ARCHNAME  : Linux/x86_64
 FC        : /opt/intel/compilers_and_libraries_2016.1.150/linux/bin/intel64/ifort
 FCVERSION : 16.0.1
 BLASLIB   : -mkl
 id        : ccgc

 Nodes     nprocs
 n029         3
 Number of processes for MPI-2 version of Molpro:   nprocs(total)=    4   nprocs(compute)=    3   nprocs(helper)=    1
 ga_uses_ma=false, calling ma_init with nominal heap.
 GA-space will be limited to   8.0 MW (determined by -G option)

 Using customized tuning parameters: mindgm=10; mindgv=16; mindgc=4; mindgr=1; noblas=0; mincuda=1000; minvec=7
 default implementation of scratch files=sf  

 ***,Frequencies for min3
 memory,1000,m
 gthresh,energy=1.0d-10,orbital=1.0d-10,oneint=1.0d-16,twoint=1.0d-16,optgrad=1.0d-6,compress=1.0d-13
 geomtyp=xyz
 
  geometry = {
  12
  arbitrary comment
     C    1.776964391707    0.711398808326   -0.047331391796
     C    0.491811976407   -0.059992870174   -0.196493901896
     C    0.450332819107   -1.536294019674    0.101417522804
     O   -0.560767745493    0.727234937526    0.254453964104
     O   -1.837840335593    0.092269037726   -0.120531795196
     H    2.585373063107    0.211465914126   -0.611440883996
     H    1.660426393907    1.742887987326   -0.426532369096
     H    2.095123485707    0.774048097326    1.017650404504
     H   -0.504871383593   -1.980512336509   -0.220087664500
     H    1.282006216468   -2.047574425319   -0.418854872647
     H    0.561301952266   -1.719696863542    1.196537309468
     H   -1.987676119413    0.549469631273   -0.967088998003
  }
 
 basis=cc-pvdz
 {rhf;maxit,200}
 {uccsd(t);maxit,200}

 Variables initialized (661), CPU time= 0.01 sec
 Commands  initialized (458), CPU time= 0.01 sec, 486 directives.
 Default parameters read. Elapsed time= 0.07 sec

 Checking input...
 Passed
1


                                         ***  PROGRAM SYSTEM MOLPRO  ***
                         Copyright, University College Cardiff Consultants Limited, 2008

                                    Version 2010.1 linked May 16 2016 07:17:05


 **********************************************************************************************************************************
 LABEL *   Frequencies for min3                                                          
 Linux-4.4.3/n029(x86_64) 64 bit mpp version                                             DATE: 07-Mar-20          TIME: 00:59:20  
 **********************************************************************************************************************************

 SHA1:             9e8077add272b0f3cad6f7df79ec5211205f459d
 **********************************************************************************************************************************

 THRESHOLDS:

 ZERO    =  1.00D-12  ONEINT  =  1.00D-16  TWOINT  =  1.00D-16  PREFAC  =  1.00D-14  LOCALI  =  1.00D-09  EORDER  =  1.00D-04
 ENERGY  =  1.00D-10  ETEST   =  0.00D+00  EDENS   =  0.00D+00  THRDEDEF=  1.00D-06  GRADIENT=  1.00D-02  STEP    =  1.00D-03
 ORBITAL =  1.00D-10  CIVEC   =  1.00D-05  COEFF   =  1.00D-04  PRINTCI =  5.00D-02  PUNCHCI =  9.90D+01  OPTGRAD =  1.00D-06
 OPTENERG=  1.00D-06  OPTSTEP =  3.00D-04  THRGRAD =  1.00D-10  COMPRESS=  1.00D-13  VARMIN  =  1.00D-07  VARMAX  =  1.00D-03
 THRDOUB =  0.00D+00  THRDIV  =  1.00D-05  THRRED  =  1.00D-07  THRPSP  =  1.00D+00  THRDC   =  1.00D-10  THRCS   =  1.00D-10
 THRNRM  =  1.00D-08  THREQ   =  0.00D+00  THRDE   =  1.00D+00  THRREF  =  1.00D-05  SPARFAC =  1.00D+00  THRDLP  =  1.00D-07
 THRDIA  =  1.00D-10  THRDLS  =  1.00D-07  THRGPS  =  0.00D+00  THRKEX  =  0.00D+00  THRDIS  =  2.00D-01  THRVAR  =  1.00D-10
 THRLOC  =  1.00D-06  THRGAP  =  1.00D-06  THRLOCT = -1.00D+00  THRGAPT = -1.00D+00  THRORB  =  1.00D-06  THRMLTP =  0.00D+00
 THRCPQCI=  1.00D-10  KEXTA   =  0.00D+00  THRCOARS=  0.00D+00  SYMTOL  =  1.00D-06  GRADTOL =  1.00D-06  THROVL  =  1.00D-08
 THRORTH =  1.00D-08  GRID    =  1.00D-06  GRIDMAX =  1.00D-03  DTMAX   =  0.00D+00

 SETTING GEOMTYP        =    XYZ

 Variable memory set to 1000000000 words,  buffer space   230000 words

 SETTING BASIS          =    CC-PVDZ


 Recomputing integrals since basis changed


 Using spherical harmonics

 Library entry C      S cc-pVDZ              selected for orbital group  1
 Library entry C      P cc-pVDZ              selected for orbital group  1
 Library entry C      D cc-pVDZ              selected for orbital group  1
 Library entry O      S cc-pVDZ              selected for orbital group  2
 Library entry O      P cc-pVDZ              selected for orbital group  2
 Library entry O      D cc-pVDZ              selected for orbital group  2
 Library entry H      S cc-pVDZ              selected for orbital group  3
 Library entry H      P cc-pVDZ              selected for orbital group  3

1PROGRAM * SEWARD (Integral evaluation for generally contracted gaussian basis sets)     Author: Roland Lindh, 1990

 Geometry written to block  1 of record 700


 Point group  C1  



 ATOMIC COORDINATES

 NR  ATOM    CHARGE       X              Y              Z

   1  C       6.00    3.357976046    1.344348918   -0.089443368
   2  C       6.00    0.929389944   -0.113370094   -0.371319661
   3  C       6.00    0.851005696   -2.903174955    0.191651343
   4  O       8.00   -1.059697462    1.374274865    0.480848305
   5  O       8.00   -3.473014908    0.174363212   -0.227772083
   6  H       1.00    4.885647037    0.399612664   -1.155455816
   7  H       1.00    3.137751146    3.293580974   -0.806029364
   8  H       1.00    3.959209599    1.462738916    1.923080562
   9  H       1.00   -0.954068647   -3.742625916   -0.415905411
  10  H       1.00    2.422640648   -3.869354898   -0.791520998
  11  H       1.00    1.060706967   -3.249756101    2.261127821
  12  H       1.00   -3.756163504    1.038347121   -1.827533351

 Bond lengths in Bohr (Angstrom)

 1-2  2.846476668  1-6  2.088704811  1-7  2.088420481  1-8  2.103746788  2-3  2.847119878
     ( 1.506290578)     ( 1.105294982)     ( 1.105144521)     ( 1.113254854)     ( 1.506630951)

  2- 4  2.625975338   3- 9  2.081368903   3-10  2.090494668   3-11  2.108749868   4- 5  2.786760112
       ( 1.389606300)       ( 1.101412987)       ( 1.106242134)       ( 1.115902370)       ( 1.474689938)

  5-12  1.840075389
       ( 0.973725959)

 Bond angles

  1-2-3  120.37866573   1-2-4  108.90555081   2-1-6  109.98947225   2-1-7  110.73429490

  2- 1- 8  111.55454090   2- 3- 9  111.18344375   2- 3-10  109.82695252   2- 3-11  110.63163287

  2- 4- 5  109.23946113   3- 2- 4  118.03986083   4- 5-12   98.75204428   6- 1- 7  108.91518355

  6- 1- 8  107.73808609   7- 1- 8  107.80970783   9- 3-10  109.16647814   9- 3-11  107.84373921

 10- 3-11  108.10894425

 NUCLEAR CHARGE:                   41
 NUMBER OF PRIMITIVE AOS:         184
 NUMBER OF SYMMETRY AOS:          179
 NUMBER OF CONTRACTIONS:          105   ( 105A   )
 NUMBER OF CORE ORBITALS:           5   (   5A   )
 NUMBER OF VALENCE ORBITALS:       27   (  27A   )


 NUCLEAR REPULSION ENERGY  183.22240372


 Eigenvalues of metric

         1 0.345E-02 0.435E-02 0.105E-01 0.141E-01 0.182E-01 0.214E-01 0.331E-01 0.346E-01


 Contracted 2-electron integrals neglected if value below      1.0D-16
 AO integral compression algorithm  1   Integral accuracy      1.0D-16

     127.402 MB (compressed) written to integral file ( 93.4%)

     Node minimum: 39.322 MB, node maximum: 45.089 MB


 NUMBER OF SORTED TWO-ELECTRON INTEGRALS:    5164320.     BUFFER LENGTH:  32768
 NUMBER OF SEGMENTS:   1  SEGMENT LENGTH:    5164320      RECORD LENGTH: 524288

 Memory used in sort:       5.72 MW

 SORT1 READ    17075548. AND WROTE     5135901. INTEGRALS IN     15 RECORDS. CPU TIME:     0.23 SEC, REAL TIME:     0.28 SEC
 SORT2 READ    15396669. AND WROTE    15487395. INTEGRALS IN    450 RECORDS. CPU TIME:     0.07 SEC, REAL TIME:     0.12 SEC

 Node minimum:     5160610.  Node maximum:     5164320. integrals

 OPERATOR DM      FOR CENTER  0  COORDINATES:    0.000000    0.000000    0.000000


 **********************************************************************************************************************************
 DATASETS  * FILE   NREC   LENGTH (MB)   RECORD NAMES
              1      18        3.17       500      610      700      900      950      970     1000      129      960     1100   
                                          VAR    BASINP    GEOM    SYMINP    ZMAT    AOBASIS   BASIS     P2S    ABASIS      S 
                                         1400     1410     1200     1210     1080     1600     1650     1700   
                                           T        V       H0       H01     AOSYM     SMH    MOLCAS    OPER   

 PROGRAMS   *        TOTAL       INT
 CPU TIMES  *         1.49      1.41
 REAL TIME  *         1.84 SEC
 DISK USED  *       307.10 MB      
 GA USED    *         0.00 MB       (max)       0.00 MB       (current)
 **********************************************************************************************************************************

1PROGRAM * RHF-SCF (OPEN SHELL)       Authors: W. Meyer, H.-J. Werner


 NUMBER OF ELECTRONS:      21+   20-    SPACE SYMMETRY=1    SPIN SYMMETRY: Doublet 
 CONVERGENCE THRESHOLDS:    1.00E-10 (Density)    1.00E-11 (Energy)
 MAX. NUMBER OF ITERATIONS:      200
 INTERPOLATION TYPE:            DIIS
 INTERPOLATION STEPS:              2 (START)      1 (STEP)
 LEVEL SHIFTS:                 -0.30 (CLOSED)  0.00 (OPEN) 



 Orbital guess generated from atomic densities. Full valence occupancy:   32

 Molecular orbital dump at record        2100.2

 ITERATION    DDIFF          GRAD             ENERGY        2-EL.EN.            DIPOLE MOMENTS         DIIS
    1      0.000D+00      0.000D+00      -267.17823310    555.815454    0.57159    0.04867   -0.74923    0
    2      0.000D+00      0.617D-02      -267.24890658    555.737974    0.41450   -0.13151   -0.59902    1
    3      0.927D-02      0.214D-02      -267.26108753    555.655624    0.39393   -0.05953   -0.62656    2
    4      0.336D-02      0.912D-03      -267.26469840    555.807962    0.37911   -0.09965   -0.64307    3
    5      0.186D-02      0.363D-03      -267.26526798    555.779347    0.38156   -0.09317   -0.63609    4
    6      0.792D-03      0.110D-03      -267.26534449    555.765604    0.37980   -0.09298   -0.63884    5
    7      0.277D-03      0.511D-04      -267.26536465    555.762593    0.37907   -0.09272   -0.63834    6
    8      0.144D-03      0.273D-04      -267.26537071    555.760650    0.37933   -0.09283   -0.63856    7
    9      0.924D-04      0.115D-04      -267.26537163    555.760963    0.37952   -0.09279   -0.63831    8
   10      0.366D-04      0.501D-05      -267.26537179    555.761574    0.37978   -0.09280   -0.63838    9
   11      0.147D-04      0.197D-05      -267.26537181    555.761416    0.37983   -0.09280   -0.63838    9
   12      0.651D-05      0.671D-06      -267.26537182    555.761550    0.37985   -0.09280   -0.63838    9
   13      0.227D-05      0.226D-06      -267.26537182    555.761466    0.37985   -0.09280   -0.63838    9
   14      0.631D-06      0.756D-07      -267.26537182    555.761474    0.37985   -0.09280   -0.63838    9
   15      0.192D-06      0.299D-07      -267.26537182    555.761470    0.37985   -0.09280   -0.63838    9
   16      0.821D-07      0.144D-07      -267.26537182    555.761472    0.37985   -0.09280   -0.63838    9
   17      0.371D-07      0.745D-08      -267.26537182    555.761472    0.37985   -0.09280   -0.63838    9
   18      0.220D-07      0.340D-08      -267.26537182    555.761472    0.37985   -0.09280   -0.63838    9
   19      0.114D-07      0.133D-08      -267.26537182    555.761472    0.37985   -0.09280   -0.63838    9
   20      0.443D-08      0.564D-09      -267.26537182    555.761472    0.37985   -0.09280   -0.63838    9
   21      0.165D-08      0.285D-09      -267.26537182    555.761472    0.37985   -0.09280   -0.63838    9
   22      0.749D-09      0.161D-09      -267.26537182    555.761472    0.37985   -0.09280   -0.63838    9
   23      0.444D-09      0.793D-10      -267.26537182    555.761472    0.37985   -0.09280   -0.63838    9
   24      0.263D-09      0.316D-10      -267.26537182    555.761472    0.37985   -0.09280   -0.63838    9
   25      0.929D-10      0.129D-10      -267.26537182    555.761472    0.37985   -0.09280   -0.63838    0

 Final alpha occupancy:  21
 Final beta  occupancy:  20

 !RHF STATE 1.1 Energy               -267.265371817256
 Nuclear energy                       183.22240372
 One-electron energy                 -728.36851154
 Two-electron energy                  277.88073601
 Virial quotient                       -1.00156021
 !RHF STATE 1.1 Dipole moment           0.37985187    -0.09280150    -0.63837812
 Dipole moment /Debye                   0.96542392    -0.23586245    -1.62248906

 Orbital energies:

         1.1          2.1          3.1          4.1          5.1          6.1          7.1          8.1          9.1         10.1
    -20.630531   -20.628787   -11.279292   -11.237873   -11.232408    -1.470260    -1.240880    -1.023183    -0.945279    -0.768461

        11.1         12.1         13.1         14.1         15.1         16.1         17.1         18.1         19.1         20.1
     -0.704662    -0.643091    -0.626724    -0.588789    -0.545030    -0.543367    -0.538927    -0.516959    -0.493080    -0.469761

        21.1         22.1         23.1
     -0.352346     0.181314     0.183536


 **********************************************************************************************************************************
 DATASETS  * FILE   NREC   LENGTH (MB)   RECORD NAMES
              1      18        3.17       500      610      700      900      950      970     1000      129      960     1100   
                                          VAR    BASINP    GEOM    SYMINP    ZMAT    AOBASIS   BASIS     P2S    ABASIS      S 
                                         1400     1410     1200     1210     1080     1600     1650     1700   
                                           T        V       H0       H01     AOSYM     SMH    MOLCAS    OPER   

              2       3        0.77       700     1000     2100   
                                         GEOM     BASIS     RHF  

 PROGRAMS   *        TOTAL       RHF       INT
 CPU TIMES  *         3.15      1.66      1.41
 REAL TIME  *         3.65 SEC
 DISK USED  *       323.67 MB      
 SF USED    *         0.04 MB      
 GA USED    *         0.00 MB       (max)       0.00 MB       (current)
 **********************************************************************************************************************************


1PROGRAM * CCSD (Unrestricted open-shell coupled cluster)     Authors: C. Hampel, H.-J. Werner, 1991, M. Deegan, P.J. Knowles, 1992


 Convergence thresholds:  THRVAR = 1.00D-08  THRDEN = 1.00D-10

 CCSD(T)     terms to be evaluated (factor= 1.000)


 Number of core orbitals:           5 (   5 )
 Number of closed-shell orbitals:  15 (  15 )
 Number of active  orbitals:        1 (   1 )
 Number of external orbitals:      84 (  84 )

 Memory could be reduced to 24.91 Mwords without degradation in triples

 Number of N-1 electron functions:              31
 Number of N-2 electron functions:             465
 Number of singly external CSFs:              2635
 Number of doubly external CSFs:           2537250
 Total number of CSFs:                     2539885

 Molecular orbitals read from record     2100.2  Type=RHF/CANONICAL (state 1.1)

 Integral transformation finished. Total CPU:   1.39 sec, npass=  1  Memory used:  12.63 MW

 Starting RMP2 calculation

 ITER.      SQ.NORM     CORR.ENERGY   TOTAL ENERGY   ENERGY CHANGE        DEN1      VAR(S)    VAR(P)  DIIS     TIME
   1      1.24304608    -0.78638048  -268.05175230    -0.78638048    -0.00305025  0.20D-04  0.11D-02  1  1     1.82
   2      1.24568824    -0.78967000  -268.05504182    -0.00328952    -0.00000475  0.54D-06  0.19D-05  2  2     2.18
   3      1.24575385    -0.78971210  -268.05508391    -0.00004210    -0.00000003  0.16D-07  0.68D-08  3  3     2.56
   4      1.24575480    -0.78971210  -268.05508391    -0.00000000    -0.00000000  0.27D-09  0.38D-10  4  4     2.98
   5      1.24575489    -0.78971213  -268.05508395    -0.00000003    -0.00000000  0.25D-11  0.65D-12  5  5     3.43
   6      1.24575490    -0.78971214  -268.05508395    -0.00000001    -0.00000000  0.28D-13  0.87D-14  6  6     3.90
   7      1.24575490    -0.78971214  -268.05508395     0.00000000    -0.00000000  0.47D-15  0.12D-15  6  1     4.38
   8      1.24575490    -0.78971214  -268.05508395     0.00000000    -0.00000000  0.60D-17  0.13D-17  6  2     4.86

 Norm of t1 vector:      0.03893529      S-energy:    -0.00227147      T1 diagnostic:  0.00055064
 Norm of t2 vector:      0.49420537      P-energy:    -0.78744067
                                         Alpha-Beta:  -0.59342270
                                         Alpha-Alpha: -0.10094007
                                         Beta-Beta:   -0.09307790

 Spin contamination <S**2-Sz**2-Sz>     0.00104062
  Reference energy                   -267.265371817257
  RHF-RMP2 correlation energy          -0.789712136090
 !RHF-RMP2 energy                    -268.055083953346

 Starting UCCSD calculation

 ITER.      SQ.NORM     CORR.ENERGY   TOTAL ENERGY   ENERGY CHANGE        DEN1      VAR(S)    VAR(P)  DIIS     TIME
   1      1.26282811    -0.80905562  -268.07442744    -0.80905562    -0.02515907  0.38D-02  0.59D-02  1  1    12.96
   2      1.29161133    -0.83646856  -268.10184038    -0.02741294    -0.00201167  0.22D-03  0.66D-03  2  2    21.06
   3      1.30155727    -0.84096816  -268.10633998    -0.00449960    -0.00032476  0.19D-03  0.56D-04  3  3    29.19
   4      1.30647285    -0.84244585  -268.10781767    -0.00147769    -0.00007212  0.43D-04  0.14D-04  4  4    37.43
   5      1.30920426    -0.84283419  -268.10820601    -0.00038834    -0.00002368  0.19D-04  0.32D-05  5  5    45.68
   6      1.31114442    -0.84303877  -268.10841059    -0.00020458    -0.00000646  0.42D-05  0.12D-05  6  6    53.94
   7      1.31209378    -0.84309756  -268.10846937    -0.00005878    -0.00000208  0.14D-05  0.37D-06  6  2    62.20
   8      1.31253513    -0.84314022  -268.10851204    -0.00004266    -0.00000065  0.45D-06  0.11D-06  6  1    70.43
   9      1.31272019    -0.84314480  -268.10851662    -0.00000458    -0.00000022  0.15D-06  0.35D-07  6  4    78.69
  10      1.31278334    -0.84314773  -268.10851954    -0.00000293    -0.00000005  0.35D-07  0.95D-08  6  3    87.01
  11      1.31281281    -0.84314647  -268.10851829     0.00000126    -0.00000002  0.13D-07  0.28D-08  6  5    95.18
  12      1.31282318    -0.84314621  -268.10851803     0.00000026    -0.00000000  0.26D-08  0.95D-09  6  6   103.42
  13      1.31282203    -0.84314529  -268.10851711     0.00000092    -0.00000000  0.96D-09  0.28D-09  6  2   111.66
  14      1.31281683    -0.84314445  -268.10851627     0.00000084    -0.00000000  0.21D-09  0.67D-10  6  1   121.16
  15      1.31281275    -0.84314386  -268.10851568     0.00000059    -0.00000000  0.78D-10  0.19D-10  6  4   129.42
  16      1.31280957    -0.84314348  -268.10851530     0.00000038    -0.00000000  0.28D-10  0.63D-11  6  3   137.73
  17      1.31280737    -0.84314324  -268.10851506     0.00000024    -0.00000000  0.10D-10  0.24D-11  6  5   145.98
  18      1.31280646    -0.84314318  -268.10851500     0.00000006    -0.00000000  0.41D-11  0.87D-12  6  6   154.23
  19      1.31280585    -0.84314315  -268.10851496     0.00000003    -0.00000000  0.16D-11  0.37D-12  6  2   162.49
  20      1.31280554    -0.84314313  -268.10851495     0.00000001    -0.00000000  0.60D-12  0.13D-12  6  1   170.76
  21      1.31280537    -0.84314312  -268.10851494     0.00000001    -0.00000000  0.28D-12  0.58D-13  6  4   179.03
  22      1.31280525    -0.84314312  -268.10851493     0.00000001    -0.00000000  0.74D-13  0.21D-13  6  3   187.28
  23      1.31280519    -0.84314311  -268.10851493     0.00000000    -0.00000000  0.21D-13  0.63D-14  6  5   195.55
  24      1.31280519    -0.84314311  -268.10851493    -0.00000000    -0.00000000  0.67D-14  0.23D-14  6  6   203.80
  25      1.31280519    -0.84314311  -268.10851493    -0.00000000    -0.00000000  0.21D-14  0.52D-15  6  2   212.05
  26      1.31280520    -0.84314312  -268.10851493    -0.00000000    -0.00000000  0.77D-15  0.15D-15  6  1   220.31
  27      1.31280521    -0.84314312  -268.10851493    -0.00000000    -0.00000000  0.20D-15  0.63D-16  6  3   228.57
  28      1.31280521    -0.84314312  -268.10851493    -0.00000000    -0.00000000  0.30D-16  0.11D-16  6  4   236.82
  29      1.31280521    -0.84314312  -268.10851493    -0.00000000    -0.00000000  0.70D-17  0.29D-17  6  5   245.10
  30      1.31280522    -0.84314312  -268.10851493    -0.00000000    -0.00000000  0.15D-17  0.54D-18  6  6   253.35
  31      1.31280522    -0.84314312  -268.10851493    -0.00000000    -0.00000000  0.35D-18  0.10D-18  6  2   261.59

 Norm of t1 vector:      0.13873584      S-energy:    -0.00282128      T1 diagnostic:  0.01617122
                                                                       D1 diagnostic:  0.06282709
 Norm of t2 vector:      0.54180954      P-energy:    -0.84032183
                                         Alpha-Beta:  -0.66487931
                                         Alpha-Alpha: -0.09147291
                                         Beta-Beta:   -0.08396961

 Spin contamination <S**2-Sz**2-Sz>     0.00217195

 Memory could be reduced to 28.85 Mwords without degradation in triples
 

 RESULTS
 =======

  Reference energy                   -267.265371817257
  UCCSD singles energy                 -0.002821284375
  UCCSD pair energy                    -0.840321832256
  UCCSD correlation energy             -0.843143116631
  Triples (T) contribution             -0.024978943504
  Total correlation energy             -0.868122060135
 
  RHF-UCCSD energy                   -268.108514933887
  RHF-UCCSD[T] energy                -268.134829976495
  RHF-UCCSD-T energy                 -268.133072323913
 !RHF-UCCSD(T) energy                -268.133493877391

 Program statistics:

 Available memory in ccsd:               999997692
 Min. memory needed in ccsd:               7337057
 Max. memory used in ccsd:                10523002
 Max. memory used in cckext:              10867977 (31 integral passes)
 Max. memory used in cckint:              12633073 ( 1 integral passes)



 **********************************************************************************************************************************
 DATASETS  * FILE   NREC   LENGTH (MB)   RECORD NAMES
              1      18        3.17       500      610      700      900      950      970     1000      129      960     1100   
                                          VAR    BASINP    GEOM    SYMINP    ZMAT    AOBASIS   BASIS     P2S    ABASIS      S 
                                         1400     1410     1200     1210     1080     1600     1650     1700   
                                           T        V       H0       H01     AOSYM     SMH    MOLCAS    OPER   

              2       3        0.77       700     1000     2100   
                                         GEOM     BASIS     RHF  

 PROGRAMS   *        TOTAL  UCCSD(T)       RHF       INT
 CPU TIMES  *       331.48    328.32      1.66      1.41
 REAL TIME  *       343.31 SEC
 DISK USED  *         1.29 GB      
 SF USED    *       553.73 MB      
 GA USED    *         0.00 MB       (max)       0.00 MB       (current)
 **********************************************************************************************************************************

        UCCSD(T)        RHF-SCF 
   -268.13349388   -267.26537182
 **********************************************************************************************************************************
 Variable memory released
