
 Primary working directories    : /tmp/320938.408.gen4.q
 Secondary working directories  : /tmp/320938.408.gen4.q
 Wavefunction directory         : /home/vulcan/mel64643/wfu/
 Main file repository           : /tmp/320938.408.gen4.q/

 ARCHNAME  : Linux/x86_64
 FC        : /opt/intel/compilers_and_libraries_2016.1.150/linux/bin/intel64/ifort
 FCVERSION : 16.0.1
 BLASLIB   : -mkl
 id        : ccgc

 Nodes     nprocs
 n066         3
 Number of processes for MPI-2 version of Molpro:   nprocs(total)=    4   nprocs(compute)=    3   nprocs(helper)=    1
 ga_uses_ma=false, calling ma_init with nominal heap.
 GA-space will be limited to   8.0 MW (determined by -G option)

 Using customized tuning parameters: mindgm=10; mindgv=16; mindgc=4; mindgr=1; noblas=0; mincuda=1000; minvec=7
 default implementation of scratch files=sf  

 ***,Frequencies for min3
 memory,1000,m
 gthresh,energy=1.0d-10,orbital=1.0d-10,oneint=1.0d-16,twoint=1.0d-16,optgrad=1.0d-6,compress=1.0d-13
 geomtyp=xyz
 
  geometry = {
  12
  arbitrary comment
     C    1.776964391707    0.711398808326   -0.047331391796
     C    0.491811976407   -0.059992870174   -0.196493901896
     C    0.450332819107   -1.536294019674    0.101417522804
     O   -0.560767745493    0.727234937526    0.254453964104
     O   -1.837840335593    0.092269037726   -0.120531795196
     H    2.585373063107    0.211465914126   -0.611440883996
     H    1.658334331693    1.740255883242   -0.426339832759
     H    2.095633698169    0.774361406332    1.017821430161
     H   -0.504530745902   -1.982158812639   -0.220233985657
     H    1.282241899040   -2.046741229469   -0.417190586273
     H    0.562053423370   -1.718724165241    1.194680134857
     H   -1.987422061029    0.551629008330   -0.967113350602
  }
 
 basis=cc-pvdz
 {rhf;maxit,200}
 {uccsd(t);maxit,200}

 Variables initialized (661), CPU time= 0.00 sec
 Commands  initialized (458), CPU time= 0.00 sec, 486 directives.
 Default parameters read. Elapsed time= 0.05 sec

 Checking input...
 Passed
1


                                         ***  PROGRAM SYSTEM MOLPRO  ***
                         Copyright, University College Cardiff Consultants Limited, 2008

                                    Version 2010.1 linked May 16 2016 07:17:05


 **********************************************************************************************************************************
 LABEL *   Frequencies for min3                                                          
 Linux-4.4.3/n066(x86_64) 64 bit mpp version                                             DATE: 07-Mar-20          TIME: 03:22:05  
 **********************************************************************************************************************************

 SHA1:             9e8077add272b0f3cad6f7df79ec5211205f459d
 **********************************************************************************************************************************

 THRESHOLDS:

 ZERO    =  1.00D-12  ONEINT  =  1.00D-16  TWOINT  =  1.00D-16  PREFAC  =  1.00D-14  LOCALI  =  1.00D-09  EORDER  =  1.00D-04
 ENERGY  =  1.00D-10  ETEST   =  0.00D+00  EDENS   =  0.00D+00  THRDEDEF=  1.00D-06  GRADIENT=  1.00D-02  STEP    =  1.00D-03
 ORBITAL =  1.00D-10  CIVEC   =  1.00D-05  COEFF   =  1.00D-04  PRINTCI =  5.00D-02  PUNCHCI =  9.90D+01  OPTGRAD =  1.00D-06
 OPTENERG=  1.00D-06  OPTSTEP =  3.00D-04  THRGRAD =  1.00D-10  COMPRESS=  1.00D-13  VARMIN  =  1.00D-07  VARMAX  =  1.00D-03
 THRDOUB =  0.00D+00  THRDIV  =  1.00D-05  THRRED  =  1.00D-07  THRPSP  =  1.00D+00  THRDC   =  1.00D-10  THRCS   =  1.00D-10
 THRNRM  =  1.00D-08  THREQ   =  0.00D+00  THRDE   =  1.00D+00  THRREF  =  1.00D-05  SPARFAC =  1.00D+00  THRDLP  =  1.00D-07
 THRDIA  =  1.00D-10  THRDLS  =  1.00D-07  THRGPS  =  0.00D+00  THRKEX  =  0.00D+00  THRDIS  =  2.00D-01  THRVAR  =  1.00D-10
 THRLOC  =  1.00D-06  THRGAP  =  1.00D-06  THRLOCT = -1.00D+00  THRGAPT = -1.00D+00  THRORB  =  1.00D-06  THRMLTP =  0.00D+00
 THRCPQCI=  1.00D-10  KEXTA   =  0.00D+00  THRCOARS=  0.00D+00  SYMTOL  =  1.00D-06  GRADTOL =  1.00D-06  THROVL  =  1.00D-08
 THRORTH =  1.00D-08  GRID    =  1.00D-06  GRIDMAX =  1.00D-03  DTMAX   =  0.00D+00

 SETTING GEOMTYP        =    XYZ

 Variable memory set to 1000000000 words,  buffer space   230000 words

 SETTING BASIS          =    CC-PVDZ


 Recomputing integrals since basis changed


 Using spherical harmonics

 Library entry C      S cc-pVDZ              selected for orbital group  1
 Library entry C      P cc-pVDZ              selected for orbital group  1
 Library entry C      D cc-pVDZ              selected for orbital group  1
 Library entry O      S cc-pVDZ              selected for orbital group  2
 Library entry O      P cc-pVDZ              selected for orbital group  2
 Library entry O      D cc-pVDZ              selected for orbital group  2
 Library entry H      S cc-pVDZ              selected for orbital group  3
 Library entry H      P cc-pVDZ              selected for orbital group  3

1PROGRAM * SEWARD (Integral evaluation for generally contracted gaussian basis sets)     Author: Roland Lindh, 1990

 Geometry written to block  1 of record 700


 Point group  C1  



 ATOMIC COORDINATES

 NR  ATOM    CHARGE       X              Y              Z

   1  C       6.00    3.357976046    1.344348918   -0.089443368
   2  C       6.00    0.929389944   -0.113370094   -0.371319661
   3  C       6.00    0.851005696   -2.903174955    0.191651343
   4  O       8.00   -1.059697462    1.374274865    0.480848305
   5  O       8.00   -3.473014908    0.174363212   -0.227772083
   6  H       1.00    4.885647037    0.399612664   -1.155455816
   7  H       1.00    3.133797721    3.288607018   -0.805665523
   8  H       1.00    3.960173761    1.463330985    1.923403754
   9  H       1.00   -0.953424935   -3.745737305   -0.416181918
  10  H       1.00    2.423086023   -3.867780386   -0.788375953
  11  H       1.00    1.062127041   -3.247917968    2.257618270
  12  H       1.00   -3.755683403    1.042427752   -1.827579371

 Bond lengths in Bohr (Angstrom)

 1-2  2.846476668  1-6  2.088704811  1-7  2.084075252  1-8  2.104365072  2-3  2.847119878
     ( 1.506290578)     ( 1.105294982)     ( 1.102845125)     ( 1.113582035)     ( 1.506630951)

  2- 4  2.625975338   3- 9  2.082148527   3-10  2.088624833   3-11  2.105145912   4- 5  2.786760112
       ( 1.389606300)       ( 1.101825546)       ( 1.105252660)       ( 1.113995238)       ( 1.474689938)

  5-12  1.841961151
       ( 0.974723861)

 Bond angles

  1-2-3  120.37866573   1-2-4  108.90555081   2-1-6  109.98947225   2-1-7  110.60659728

  2- 1- 8  111.58178833   2- 3- 9  111.26298869   2- 3-10  109.81823408   2- 3-11  110.59486875

  2- 4- 5  109.23946113   3- 2- 4  118.03986083   4- 5-12   98.67500741   6- 1- 7  108.98017898

  6- 1- 8  107.72491379   7- 1- 8  107.86366865   9- 3-10  109.17338781   9- 3-11  107.88675976

 10- 3-11  108.02135964

 NUCLEAR CHARGE:                   41
 NUMBER OF PRIMITIVE AOS:         184
 NUMBER OF SYMMETRY AOS:          179
 NUMBER OF CONTRACTIONS:          105   ( 105A   )
 NUMBER OF CORE ORBITALS:           5   (   5A   )
 NUMBER OF VALENCE ORBITALS:       27   (  27A   )


 NUCLEAR REPULSION ENERGY  183.23701101


 Eigenvalues of metric

         1 0.345E-02 0.435E-02 0.105E-01 0.141E-01 0.182E-01 0.214E-01 0.331E-01 0.346E-01


 Contracted 2-electron integrals neglected if value below      1.0D-16
 AO integral compression algorithm  1   Integral accuracy      1.0D-16

     127.664 MB (compressed) written to integral file ( 93.2%)

     Node minimum: 41.157 MB, node maximum: 45.089 MB


 NUMBER OF SORTED TWO-ELECTRON INTEGRALS:    5164320.     BUFFER LENGTH:  32768
 NUMBER OF SEGMENTS:   1  SEGMENT LENGTH:    5164320      RECORD LENGTH: 524288

 Memory used in sort:       5.72 MW

 SORT1 READ    17075710. AND WROTE     5135943. INTEGRALS IN     15 RECORDS. CPU TIME:     0.22 SEC, REAL TIME:     0.26 SEC
 SORT2 READ    15396744. AND WROTE    15487395. INTEGRALS IN    474 RECORDS. CPU TIME:     0.07 SEC, REAL TIME:     0.11 SEC

 Node minimum:     5160610.  Node maximum:     5164320. integrals

 OPERATOR DM      FOR CENTER  0  COORDINATES:    0.000000    0.000000    0.000000


 **********************************************************************************************************************************
 DATASETS  * FILE   NREC   LENGTH (MB)   RECORD NAMES
              1      18        3.17       500      610      700      900      950      970     1000      129      960     1100   
                                          VAR    BASINP    GEOM    SYMINP    ZMAT    AOBASIS   BASIS     P2S    ABASIS      S 
                                         1400     1410     1200     1210     1080     1600     1650     1700   
                                           T        V       H0       H01     AOSYM     SMH    MOLCAS    OPER   

 PROGRAMS   *        TOTAL       INT
 CPU TIMES  *         0.93      0.89
 REAL TIME  *         1.37 SEC
 DISK USED  *       306.49 MB      
 GA USED    *         0.00 MB       (max)       0.00 MB       (current)
 **********************************************************************************************************************************

1PROGRAM * RHF-SCF (OPEN SHELL)       Authors: W. Meyer, H.-J. Werner


 NUMBER OF ELECTRONS:      21+   20-    SPACE SYMMETRY=1    SPIN SYMMETRY: Doublet 
 CONVERGENCE THRESHOLDS:    1.00E-10 (Density)    1.00E-11 (Energy)
 MAX. NUMBER OF ITERATIONS:      200
 INTERPOLATION TYPE:            DIIS
 INTERPOLATION STEPS:              2 (START)      1 (STEP)
 LEVEL SHIFTS:                 -0.30 (CLOSED)  0.00 (OPEN) 



 Orbital guess generated from atomic densities. Full valence occupancy:   32

 Molecular orbital dump at record        2100.2

 ITERATION    DDIFF          GRAD             ENERGY        2-EL.EN.            DIPOLE MOMENTS         DIIS
    1      0.000D+00      0.000D+00      -267.17824869    555.846063    0.56997    0.04955   -0.74913    0
    2      0.000D+00      0.617D-02      -267.24895318    555.768164    0.41406   -0.13063   -0.59889    1
    3      0.928D-02      0.214D-02      -267.26112830    555.685688    0.39371   -0.05848   -0.62629    2
    4      0.336D-02      0.912D-03      -267.26473559    555.838181    0.37913   -0.09851   -0.64274    3
    5      0.186D-02      0.364D-03      -267.26530464    555.809599    0.38168   -0.09196   -0.63573    4
    6      0.792D-03      0.110D-03      -267.26538109    555.795812    0.37995   -0.09174   -0.63846    5
    7      0.277D-03      0.511D-04      -267.26540124    555.792824    0.37925   -0.09147   -0.63795    6
    8      0.144D-03      0.273D-04      -267.26540732    555.790869    0.37953   -0.09158   -0.63816    7
    9      0.925D-04      0.115D-04      -267.26540823    555.791188    0.37972   -0.09154   -0.63792    8
   10      0.366D-04      0.501D-05      -267.26540839    555.791800    0.37998   -0.09155   -0.63799    9
   11      0.146D-04      0.196D-05      -267.26540842    555.791641    0.38003   -0.09155   -0.63799    9
   12      0.650D-05      0.671D-06      -267.26540842    555.791776    0.38005   -0.09155   -0.63799    9
   13      0.227D-05      0.226D-06      -267.26540842    555.791691    0.38005   -0.09155   -0.63799    9
   14      0.632D-06      0.758D-07      -267.26540842    555.791700    0.38005   -0.09155   -0.63799    9
   15      0.193D-06      0.301D-07      -267.26540842    555.791696    0.38005   -0.09155   -0.63799    9
   16      0.826D-07      0.145D-07      -267.26540842    555.791698    0.38005   -0.09155   -0.63799    9
   17      0.376D-07      0.754D-08      -267.26540842    555.791698    0.38005   -0.09155   -0.63799    9
   18      0.224D-07      0.342D-08      -267.26540842    555.791698    0.38005   -0.09155   -0.63799    9
   19      0.115D-07      0.133D-08      -267.26540842    555.791698    0.38005   -0.09155   -0.63799    9
   20      0.444D-08      0.568D-09      -267.26540842    555.791698    0.38005   -0.09155   -0.63799    9
   21      0.166D-08      0.287D-09      -267.26540842    555.791698    0.38005   -0.09155   -0.63799    9
   22      0.756D-09      0.162D-09      -267.26540842    555.791698    0.38005   -0.09155   -0.63799    9
   23      0.447D-09      0.797D-10      -267.26540842    555.791698    0.38005   -0.09155   -0.63799    9
   24      0.264D-09      0.317D-10      -267.26540842    555.791698    0.38005   -0.09155   -0.63799    9
   25      0.933D-10      0.129D-10      -267.26540842    555.791698    0.38005   -0.09155   -0.63799    0

 Final alpha occupancy:  21
 Final beta  occupancy:  20

 !RHF STATE 1.1 Energy               -267.265408420761
 Nuclear energy                       183.23701101
 One-electron energy                 -728.39826826
 Two-electron energy                  277.89584883
 Virial quotient                       -1.00154352
 !RHF STATE 1.1 Dipole moment           0.38005370    -0.09155211    -0.63798536
 Dipole moment /Debye                   0.96593689    -0.23268701    -1.62149083

 Orbital energies:

         1.1          2.1          3.1          4.1          5.1          6.1          7.1          8.1          9.1         10.1
    -20.630456   -20.628880   -11.279198   -11.237656   -11.232095    -1.470165    -1.240666    -1.023264    -0.945492    -0.768409

        11.1         12.1         13.1         14.1         15.1         16.1         17.1         18.1         19.1         20.1
     -0.704563    -0.643092    -0.626759    -0.588898    -0.545210    -0.543577    -0.538928    -0.517054    -0.493025    -0.469757

        21.1         22.1         23.1
     -0.352282     0.181301     0.183547


 **********************************************************************************************************************************
 DATASETS  * FILE   NREC   LENGTH (MB)   RECORD NAMES
              1      18        3.17       500      610      700      900      950      970     1000      129      960     1100   
                                          VAR    BASINP    GEOM    SYMINP    ZMAT    AOBASIS   BASIS     P2S    ABASIS      S 
                                         1400     1410     1200     1210     1080     1600     1650     1700   
                                           T        V       H0       H01     AOSYM     SMH    MOLCAS    OPER   

              2       3        0.77       700     1000     2100   
                                         GEOM     BASIS     RHF  

 PROGRAMS   *        TOTAL       RHF       INT
 CPU TIMES  *         2.03      1.10      0.89
 REAL TIME  *         2.62 SEC
 DISK USED  *       323.06 MB      
 SF USED    *         0.04 MB      
 GA USED    *         0.00 MB       (max)       0.00 MB       (current)
 **********************************************************************************************************************************


1PROGRAM * CCSD (Unrestricted open-shell coupled cluster)     Authors: C. Hampel, H.-J. Werner, 1991, M. Deegan, P.J. Knowles, 1992


 Convergence thresholds:  THRVAR = 1.00D-08  THRDEN = 1.00D-10

 CCSD(T)     terms to be evaluated (factor= 1.000)


 Number of core orbitals:           5 (   5 )
 Number of closed-shell orbitals:  15 (  15 )
 Number of active  orbitals:        1 (   1 )
 Number of external orbitals:      84 (  84 )

 Memory could be reduced to 24.91 Mwords without degradation in triples

 Number of N-1 electron functions:              31
 Number of N-2 electron functions:             465
 Number of singly external CSFs:              2635
 Number of doubly external CSFs:           2537250
 Total number of CSFs:                     2539885

 Molecular orbitals read from record     2100.2  Type=RHF/CANONICAL (state 1.1)

 Integral transformation finished. Total CPU:   0.91 sec, npass=  1  Memory used:  12.63 MW

 Starting RMP2 calculation

 ITER.      SQ.NORM     CORR.ENERGY   TOTAL ENERGY   ENERGY CHANGE        DEN1      VAR(S)    VAR(P)  DIIS     TIME
   1      1.24300757    -0.78636963  -268.05177805    -0.78636963    -0.00304929  0.20D-04  0.11D-02  1  1     1.24
   2      1.24564824    -0.78965806  -268.05506648    -0.00328843    -0.00000474  0.54D-06  0.19D-05  2  2     1.54
   3      1.24571377    -0.78970011  -268.05510853    -0.00004205    -0.00000003  0.16D-07  0.68D-08  3  3     1.87
   4      1.24571472    -0.78970011  -268.05510853    -0.00000000    -0.00000000  0.27D-09  0.38D-10  4  4     2.23
   5      1.24571480    -0.78970015  -268.05510857    -0.00000003    -0.00000000  0.25D-11  0.65D-12  5  5     2.62
   6      1.24571482    -0.78970015  -268.05510857    -0.00000001    -0.00000000  0.28D-13  0.87D-14  6  6     3.04
   7      1.24571482    -0.78970015  -268.05510857     0.00000000    -0.00000000  0.47D-15  0.12D-15  6  1     3.46
   8      1.24571482    -0.78970015  -268.05510857     0.00000000    -0.00000000  0.60D-17  0.13D-17  6  2     3.89

 Norm of t1 vector:      0.03892448      S-energy:    -0.00227083      T1 diagnostic:  0.00055024
 Norm of t2 vector:      0.49416566      P-energy:    -0.78742932
                                         Alpha-Beta:  -0.59340442
                                         Alpha-Alpha: -0.10094298
                                         Beta-Beta:   -0.09308191

 Spin contamination <S**2-Sz**2-Sz>     0.00104005
  Reference energy                   -267.265408420759
  RHF-RMP2 correlation energy          -0.789700150803
 !RHF-RMP2 energy                    -268.055108571562

 Starting UCCSD calculation

 ITER.      SQ.NORM     CORR.ENERGY   TOTAL ENERGY   ENERGY CHANGE        DEN1      VAR(S)    VAR(P)  DIIS     TIME
   1      1.26277174    -0.80903471  -268.07444313    -0.80903471    -0.02515389  0.38D-02  0.59D-02  1  1     9.28
   2      1.29153864    -0.83644051  -268.10184893    -0.02740581    -0.00201089  0.22D-03  0.66D-03  2  2    14.67
   3      1.30147702    -0.84093744  -268.10634586    -0.00449693    -0.00032460  0.19D-03  0.56D-04  3  3    20.12
   4      1.30638982    -0.84241438  -268.10782280    -0.00147694    -0.00007208  0.43D-04  0.14D-04  4  4    25.56
   5      1.30911934    -0.84280244  -268.10821086    -0.00038806    -0.00002367  0.19D-04  0.32D-05  5  5    31.05
   6      1.31105800    -0.84300687  -268.10841529    -0.00020444    -0.00000646  0.42D-05  0.12D-05  6  6    36.59
   7      1.31200707    -0.84306565  -268.10847407    -0.00005878    -0.00000208  0.14D-05  0.37D-06  6  2    42.10
   8      1.31244856    -0.84310833  -268.10851675    -0.00004268    -0.00000065  0.45D-06  0.11D-06  6  1    47.65
   9      1.31263376    -0.84311291  -268.10852133    -0.00000458    -0.00000022  0.15D-06  0.35D-07  6  4    53.17
  10      1.31269693    -0.84311584  -268.10852426    -0.00000293    -0.00000005  0.35D-07  0.95D-08  6  3    58.69
  11      1.31272645    -0.84311458  -268.10852300     0.00000126    -0.00000002  0.13D-07  0.28D-08  6  5    64.21
  12      1.31273683    -0.84311432  -268.10852274     0.00000026    -0.00000000  0.26D-08  0.95D-09  6  6    69.76
  13      1.31273568    -0.84311340  -268.10852183     0.00000092    -0.00000000  0.96D-09  0.28D-09  6  2    75.31
  14      1.31273047    -0.84311256  -268.10852098     0.00000085    -0.00000000  0.21D-09  0.67D-10  6  1    80.86
  15      1.31272639    -0.84311197  -268.10852039     0.00000059    -0.00000000  0.78D-10  0.19D-10  6  4    86.40
  16      1.31272321    -0.84311159  -268.10852001     0.00000038    -0.00000000  0.28D-10  0.63D-11  6  3    91.90
  17      1.31272101    -0.84311135  -268.10851977     0.00000024    -0.00000000  0.10D-10  0.24D-11  6  5    97.40
  18      1.31272010    -0.84311129  -268.10851971     0.00000006    -0.00000000  0.41D-11  0.87D-12  6  6   102.91
  19      1.31271950    -0.84311126  -268.10851968     0.00000003    -0.00000000  0.16D-11  0.37D-12  6  2   108.47
  20      1.31271918    -0.84311125  -268.10851967     0.00000001    -0.00000000  0.60D-12  0.13D-12  6  1   114.02
  21      1.31271901    -0.84311124  -268.10851966     0.00000001    -0.00000000  0.28D-12  0.58D-13  6  4   119.50
  22      1.31271889    -0.84311123  -268.10851965     0.00000001    -0.00000000  0.74D-13  0.21D-13  6  3   124.99
  23      1.31271883    -0.84311122  -268.10851964     0.00000000    -0.00000000  0.21D-13  0.62D-14  6  5   130.50
  24      1.31271883    -0.84311122  -268.10851965    -0.00000000    -0.00000000  0.67D-14  0.22D-14  6  6   136.02
  25      1.31271883    -0.84311123  -268.10851965    -0.00000000    -0.00000000  0.21D-14  0.52D-15  6  2   141.53
  26      1.31271884    -0.84311123  -268.10851965    -0.00000000    -0.00000000  0.77D-15  0.15D-15  6  1   147.04
  27      1.31271885    -0.84311123  -268.10851965    -0.00000000    -0.00000000  0.20D-15  0.62D-16  6  3   152.55
  28      1.31271885    -0.84311123  -268.10851965    -0.00000000    -0.00000000  0.30D-16  0.11D-16  6  4   158.06
  29      1.31271886    -0.84311123  -268.10851965    -0.00000000    -0.00000000  0.70D-17  0.29D-17  6  5   163.59
  30      1.31271886    -0.84311123  -268.10851965    -0.00000000    -0.00000000  0.15D-17  0.54D-18  6  6   169.08
  31      1.31271886    -0.84311123  -268.10851965    -0.00000000    -0.00000000  0.35D-18  0.10D-18  6  2   174.64

 Norm of t1 vector:      0.13870916      S-energy:    -0.00282020      T1 diagnostic:  0.01616875
                                                                       D1 diagnostic:  0.06281560
 Norm of t2 vector:      0.54173667      P-energy:    -0.84029103
                                         Alpha-Beta:  -0.66484114
                                         Alpha-Alpha: -0.09147630
                                         Beta-Beta:   -0.08397359

 Spin contamination <S**2-Sz**2-Sz>     0.00217104

 Memory could be reduced to 28.85 Mwords without degradation in triples
 

 RESULTS
 =======

  Reference energy                   -267.265408420759
  UCCSD singles energy                 -0.002820196170
  UCCSD pair energy                    -0.840291031654
  UCCSD correlation energy             -0.843111227824
  Triples (T) contribution             -0.024973946162
  Total correlation energy             -0.868085173986
 
  RHF-UCCSD energy                   -268.108519648584
  RHF-UCCSD[T] energy                -268.134829338413
  RHF-UCCSD-T energy                 -268.133072139936
 !RHF-UCCSD(T) energy                -268.133493594746

 Program statistics:

 Available memory in ccsd:               999997692
 Min. memory needed in ccsd:               7337057
 Max. memory used in ccsd:                10523002
 Max. memory used in cckext:              10867977 (31 integral passes)
 Max. memory used in cckint:              12633073 ( 1 integral passes)



 **********************************************************************************************************************************
 DATASETS  * FILE   NREC   LENGTH (MB)   RECORD NAMES
              1      18        3.17       500      610      700      900      950      970     1000      129      960     1100   
                                          VAR    BASINP    GEOM    SYMINP    ZMAT    AOBASIS   BASIS     P2S    ABASIS      S 
                                         1400     1410     1200     1210     1080     1600     1650     1700   
                                           T        V       H0       H01     AOSYM     SMH    MOLCAS    OPER   

              2       3        0.77       700     1000     2100   
                                         GEOM     BASIS     RHF  

 PROGRAMS   *        TOTAL  UCCSD(T)       RHF       INT
 CPU TIMES  *       235.94    233.91      1.10      0.89
 REAL TIME  *       251.75 SEC
 DISK USED  *         1.29 GB      
 SF USED    *       553.73 MB      
 GA USED    *         0.00 MB       (max)       0.00 MB       (current)
 **********************************************************************************************************************************

        UCCSD(T)        RHF-SCF 
   -268.13349359   -267.26540842
 **********************************************************************************************************************************
 Variable memory released
