
 Primary working directories    : /tmp/320938.544.gen4.q
 Secondary working directories  : /tmp/320938.544.gen4.q
 Wavefunction directory         : /home/vulcan/mel64643/wfu/
 Main file repository           : /tmp/320938.544.gen4.q/

 ARCHNAME  : Linux/x86_64
 FC        : /opt/intel/compilers_and_libraries_2016.1.150/linux/bin/intel64/ifort
 FCVERSION : 16.0.1
 BLASLIB   : -mkl
 id        : ccgc

 Nodes     nprocs
 n035         3
 Number of processes for MPI-2 version of Molpro:   nprocs(total)=    4   nprocs(compute)=    3   nprocs(helper)=    1
 ga_uses_ma=false, calling ma_init with nominal heap.
 GA-space will be limited to   8.0 MW (determined by -G option)

 Using customized tuning parameters: mindgm=10; mindgv=16; mindgc=4; mindgr=1; noblas=0; mincuda=1000; minvec=7
 default implementation of scratch files=sf  

 ***,Frequencies for min3
 memory,1000,m
 gthresh,energy=1.0d-10,orbital=1.0d-10,oneint=1.0d-16,twoint=1.0d-16,optgrad=1.0d-6,compress=1.0d-13
 geomtyp=xyz
 
  geometry = {
  12
  arbitrary comment
     C    1.776964391707    0.711398808326   -0.047331391796
     C    0.491811976407   -0.059992870174   -0.196493901896
     C    0.450332819107   -1.536294019674    0.101417522804
     O   -0.560767745493    0.727234937526    0.254453964104
     O   -1.837840335593    0.092269037726   -0.120531795196
     H    2.582969868185    0.211360520906   -0.611309452749
     H    1.660979399716    1.742835375483   -0.426509267688
     H    2.095508313200    0.774003999423    1.017729838996
     H   -0.504531512075   -1.982710166064   -0.220155372101
     H    1.280540469058   -2.045960896292   -0.416809141066
     H    0.562821772904   -1.719737928114    1.194710846395
     H   -1.986604702539    0.550297099338   -0.967474526054
  }
 
 basis=cc-pvdz
 {rhf;maxit,200}
 {uccsd(t);maxit,200}

 Variables initialized (661), CPU time= 0.01 sec
 Commands  initialized (458), CPU time= 0.01 sec, 486 directives.
 Default parameters read. Elapsed time= 0.07 sec

 Checking input...
 Passed
1


                                         ***  PROGRAM SYSTEM MOLPRO  ***
                         Copyright, University College Cardiff Consultants Limited, 2008

                                    Version 2010.1 linked May 16 2016 07:17:05


 **********************************************************************************************************************************
 LABEL *   Frequencies for min3                                                          
 Linux-4.4.3/n035(x86_64) 64 bit mpp version                                             DATE: 07-Mar-20          TIME: 04:10:05  
 **********************************************************************************************************************************

 SHA1:             9e8077add272b0f3cad6f7df79ec5211205f459d
 **********************************************************************************************************************************

 THRESHOLDS:

 ZERO    =  1.00D-12  ONEINT  =  1.00D-16  TWOINT  =  1.00D-16  PREFAC  =  1.00D-14  LOCALI  =  1.00D-09  EORDER  =  1.00D-04
 ENERGY  =  1.00D-10  ETEST   =  0.00D+00  EDENS   =  0.00D+00  THRDEDEF=  1.00D-06  GRADIENT=  1.00D-02  STEP    =  1.00D-03
 ORBITAL =  1.00D-10  CIVEC   =  1.00D-05  COEFF   =  1.00D-04  PRINTCI =  5.00D-02  PUNCHCI =  9.90D+01  OPTGRAD =  1.00D-06
 OPTENERG=  1.00D-06  OPTSTEP =  3.00D-04  THRGRAD =  1.00D-10  COMPRESS=  1.00D-13  VARMIN  =  1.00D-07  VARMAX  =  1.00D-03
 THRDOUB =  0.00D+00  THRDIV  =  1.00D-05  THRRED  =  1.00D-07  THRPSP  =  1.00D+00  THRDC   =  1.00D-10  THRCS   =  1.00D-10
 THRNRM  =  1.00D-08  THREQ   =  0.00D+00  THRDE   =  1.00D+00  THRREF  =  1.00D-05  SPARFAC =  1.00D+00  THRDLP  =  1.00D-07
 THRDIA  =  1.00D-10  THRDLS  =  1.00D-07  THRGPS  =  0.00D+00  THRKEX  =  0.00D+00  THRDIS  =  2.00D-01  THRVAR  =  1.00D-10
 THRLOC  =  1.00D-06  THRGAP  =  1.00D-06  THRLOCT = -1.00D+00  THRGAPT = -1.00D+00  THRORB  =  1.00D-06  THRMLTP =  0.00D+00
 THRCPQCI=  1.00D-10  KEXTA   =  0.00D+00  THRCOARS=  0.00D+00  SYMTOL  =  1.00D-06  GRADTOL =  1.00D-06  THROVL  =  1.00D-08
 THRORTH =  1.00D-08  GRID    =  1.00D-06  GRIDMAX =  1.00D-03  DTMAX   =  0.00D+00

 SETTING GEOMTYP        =    XYZ

 Variable memory set to 1000000000 words,  buffer space   230000 words

 SETTING BASIS          =    CC-PVDZ


 Recomputing integrals since basis changed


 Using spherical harmonics

 Library entry C      S cc-pVDZ              selected for orbital group  1
 Library entry C      P cc-pVDZ              selected for orbital group  1
 Library entry C      D cc-pVDZ              selected for orbital group  1
 Library entry O      S cc-pVDZ              selected for orbital group  2
 Library entry O      P cc-pVDZ              selected for orbital group  2
 Library entry O      D cc-pVDZ              selected for orbital group  2
 Library entry H      S cc-pVDZ              selected for orbital group  3
 Library entry H      P cc-pVDZ              selected for orbital group  3

1PROGRAM * SEWARD (Integral evaluation for generally contracted gaussian basis sets)     Author: Roland Lindh, 1990

 Geometry written to block  1 of record 700


 Point group  C1  



 ATOMIC COORDINATES

 NR  ATOM    CHARGE       X              Y              Z

   1  C       6.00    3.357976046    1.344348918   -0.089443368
   2  C       6.00    0.929389944   -0.113370094   -0.371319661
   3  C       6.00    0.851005696   -2.903174955    0.191651343
   4  O       8.00   -1.059697462    1.374274865    0.480848305
   5  O       8.00   -3.473014908    0.174363212   -0.227772083
   6  H       1.00    4.881105657    0.399413500   -1.155207447
   7  H       1.00    3.138796175    3.293481552   -0.805985708
   8  H       1.00    3.959936818    1.462655584    1.923230671
   9  H       1.00   -0.953426382   -3.746779212   -0.416033360
  10  H       1.00    2.419870787   -3.866305770   -0.787655126
  11  H       1.00    1.063579012   -3.249833702    2.257676306
  12  H       1.00   -3.754138819    1.039910809   -1.828261893

 Bond lengths in Bohr (Angstrom)

 1-2  2.846476668  1-6  2.085348851  1-7  2.088202760  1-8  2.104093636  2-3  2.847119878
     ( 1.506290578)     ( 1.103519085)     ( 1.105029308)     ( 1.113438398)     ( 1.506630951)

  2- 4  2.625975338   3- 9  2.082528263   3-10  2.085185795   3-11  2.105663518   4- 5  2.786760112
       ( 1.389606300)       ( 1.102026494)       ( 1.103432799)       ( 1.114269143)       ( 1.474689938)

  5-12  1.841133056
       ( 0.974285652)

 Bond angles

  1-2-3  120.37866573   1-2-4  108.90555081   2-1-6  109.90748932   2-1-7  110.76134981

  2- 1- 8  111.56816222   2- 3- 9  111.28993430   2- 3-10  109.81683453   2- 3-11  110.64332118

  2- 4- 5  109.23946113   3- 2- 4  118.03986083   4- 5-12   98.67641106   6- 1- 7  108.91999730

  6- 1- 8  107.78139189   7- 1- 8  107.80482571   9- 3-10  109.13308978   9- 3-11  107.88396897

 10- 3-11  107.98757238

 NUCLEAR CHARGE:                   41
 NUMBER OF PRIMITIVE AOS:         184
 NUMBER OF SYMMETRY AOS:          179
 NUMBER OF CONTRACTIONS:          105   ( 105A   )
 NUMBER OF CORE ORBITALS:           5   (   5A   )
 NUMBER OF VALENCE ORBITALS:       27   (  27A   )


 NUCLEAR REPULSION ENERGY  183.24079915


 Eigenvalues of metric

         1 0.345E-02 0.435E-02 0.105E-01 0.141E-01 0.182E-01 0.213E-01 0.331E-01 0.345E-01


 Contracted 2-electron integrals neglected if value below      1.0D-16
 AO integral compression algorithm  1   Integral accuracy      1.0D-16

     127.402 MB (compressed) written to integral file ( 93.4%)

     Node minimum: 41.157 MB, node maximum: 43.778 MB


 NUMBER OF SORTED TWO-ELECTRON INTEGRALS:    5164320.     BUFFER LENGTH:  32768
 NUMBER OF SEGMENTS:   1  SEGMENT LENGTH:    5164320      RECORD LENGTH: 524288

 Memory used in sort:       5.72 MW

 SORT1 READ    17075629. AND WROTE     5136054. INTEGRALS IN     15 RECORDS. CPU TIME:     0.24 SEC, REAL TIME:     0.28 SEC
 SORT2 READ    15397083. AND WROTE    15487395. INTEGRALS IN    486 RECORDS. CPU TIME:     0.07 SEC, REAL TIME:     0.12 SEC

 Node minimum:     5160610.  Node maximum:     5164320. integrals

 OPERATOR DM      FOR CENTER  0  COORDINATES:    0.000000    0.000000    0.000000


 **********************************************************************************************************************************
 DATASETS  * FILE   NREC   LENGTH (MB)   RECORD NAMES
              1      18        3.17       500      610      700      900      950      970     1000      129      960     1100   
                                          VAR    BASINP    GEOM    SYMINP    ZMAT    AOBASIS   BASIS     P2S    ABASIS      S 
                                         1400     1410     1200     1210     1080     1600     1650     1700   
                                           T        V       H0       H01     AOSYM     SMH    MOLCAS    OPER   

 PROGRAMS   *        TOTAL       INT
 CPU TIMES  *         1.32      1.22
 REAL TIME  *         1.61 SEC
 DISK USED  *       305.18 MB      
 GA USED    *         0.00 MB       (max)       0.00 MB       (current)
 **********************************************************************************************************************************

1PROGRAM * RHF-SCF (OPEN SHELL)       Authors: W. Meyer, H.-J. Werner


 NUMBER OF ELECTRONS:      21+   20-    SPACE SYMMETRY=1    SPIN SYMMETRY: Doublet 
 CONVERGENCE THRESHOLDS:    1.00E-10 (Density)    1.00E-11 (Energy)
 MAX. NUMBER OF ITERATIONS:      200
 INTERPOLATION TYPE:            DIIS
 INTERPOLATION STEPS:              2 (START)      1 (STEP)
 LEVEL SHIFTS:                 -0.30 (CLOSED)  0.00 (OPEN) 



 Orbital guess generated from atomic densities. Full valence occupancy:   32

 Molecular orbital dump at record        2100.2

 ITERATION    DDIFF          GRAD             ENERGY        2-EL.EN.            DIPOLE MOMENTS         DIIS
    1      0.000D+00      0.000D+00      -267.17828515    555.850911    0.57055    0.04958   -0.74909    0
    2      0.000D+00      0.617D-02      -267.24899155    555.774115    0.41535   -0.13178   -0.59909    1
    3      0.928D-02      0.214D-02      -267.26116496    555.691627    0.39531   -0.06000   -0.62669    2
    4      0.336D-02      0.912D-03      -267.26477163    555.844199    0.38087   -0.10030   -0.64322    3
    5      0.186D-02      0.364D-03      -267.26534021    555.815649    0.38350   -0.09386   -0.63625    4
    6      0.792D-03      0.110D-03      -267.26541652    555.801871    0.38179   -0.09368   -0.63901    5
    7      0.277D-03      0.511D-04      -267.26543663    555.798874    0.38109   -0.09343   -0.63850    6
    8      0.144D-03      0.273D-04      -267.26544269    555.796923    0.38137   -0.09355   -0.63872    7
    9      0.924D-04      0.115D-04      -267.26544361    555.797233    0.38156   -0.09351   -0.63847    8
   10      0.366D-04      0.501D-05      -267.26544376    555.797847    0.38182   -0.09352   -0.63854    9
   11      0.147D-04      0.196D-05      -267.26544379    555.797688    0.38187   -0.09351   -0.63854    9
   12      0.650D-05      0.669D-06      -267.26544379    555.797823    0.38189   -0.09351   -0.63854    9
   13      0.227D-05      0.226D-06      -267.26544379    555.797738    0.38189   -0.09352   -0.63854    9
   14      0.631D-06      0.755D-07      -267.26544379    555.797747    0.38189   -0.09352   -0.63854    9
   15      0.192D-06      0.298D-07      -267.26544379    555.797743    0.38189   -0.09352   -0.63854    9
   16      0.820D-07      0.144D-07      -267.26544379    555.797745    0.38189   -0.09352   -0.63854    9
   17      0.371D-07      0.745D-08      -267.26544379    555.797745    0.38189   -0.09352   -0.63854    9
   18      0.220D-07      0.340D-08      -267.26544379    555.797745    0.38189   -0.09352   -0.63854    9
   19      0.114D-07      0.133D-08      -267.26544379    555.797745    0.38189   -0.09352   -0.63854    9
   20      0.443D-08      0.563D-09      -267.26544379    555.797745    0.38189   -0.09352   -0.63854    9
   21      0.164D-08      0.285D-09      -267.26544379    555.797745    0.38189   -0.09352   -0.63854    9
   22      0.749D-09      0.161D-09      -267.26544379    555.797745    0.38189   -0.09352   -0.63854    9
   23      0.443D-09      0.790D-10      -267.26544379    555.797745    0.38189   -0.09352   -0.63854    9
   24      0.262D-09      0.314D-10      -267.26544379    555.797745    0.38189   -0.09352   -0.63854    9
   25      0.925D-10      0.128D-10      -267.26544379    555.797745    0.38189   -0.09352   -0.63854    0

 Final alpha occupancy:  21
 Final beta  occupancy:  20

 !RHF STATE 1.1 Energy               -267.265443794123
 Nuclear energy                       183.24079915
 One-electron energy                 -728.40511530
 Two-electron energy                  277.89887236
 Virial quotient                       -1.00153554
 !RHF STATE 1.1 Dipole moment           0.38189014    -0.09351681    -0.63853568
 Dipole moment /Debye                   0.97060435    -0.23768046    -1.62288951

 Orbital energies:

         1.1          2.1          3.1          4.1          5.1          6.1          7.1          8.1          9.1         10.1
    -20.630416   -20.628785   -11.279244   -11.237704   -11.232000    -1.470166    -1.240696    -1.023361    -0.945533    -0.768537

        11.1         12.1         13.1         14.1         15.1         16.1         17.1         18.1         19.1         20.1
     -0.704610    -0.643035    -0.626812    -0.588816    -0.545168    -0.543584    -0.539248    -0.517035    -0.493004    -0.469774

        21.1         22.1         23.1
     -0.352318     0.181338     0.183651


 **********************************************************************************************************************************
 DATASETS  * FILE   NREC   LENGTH (MB)   RECORD NAMES
              1      18        3.17       500      610      700      900      950      970     1000      129      960     1100   
                                          VAR    BASINP    GEOM    SYMINP    ZMAT    AOBASIS   BASIS     P2S    ABASIS      S 
                                         1400     1410     1200     1210     1080     1600     1650     1700   
                                           T        V       H0       H01     AOSYM     SMH    MOLCAS    OPER   

              2       3        0.77       700     1000     2100   
                                         GEOM     BASIS     RHF  

 PROGRAMS   *        TOTAL       RHF       INT
 CPU TIMES  *         2.71      1.39      1.22
 REAL TIME  *         3.17 SEC
 DISK USED  *       321.75 MB      
 SF USED    *         0.04 MB      
 GA USED    *         0.00 MB       (max)       0.00 MB       (current)
 **********************************************************************************************************************************


1PROGRAM * CCSD (Unrestricted open-shell coupled cluster)     Authors: C. Hampel, H.-J. Werner, 1991, M. Deegan, P.J. Knowles, 1992


 Convergence thresholds:  THRVAR = 1.00D-08  THRDEN = 1.00D-10

 CCSD(T)     terms to be evaluated (factor= 1.000)


 Number of core orbitals:           5 (   5 )
 Number of closed-shell orbitals:  15 (  15 )
 Number of active  orbitals:        1 (   1 )
 Number of external orbitals:      84 (  84 )

 Memory could be reduced to 24.91 Mwords without degradation in triples

 Number of N-1 electron functions:              31
 Number of N-2 electron functions:             465
 Number of singly external CSFs:              2635
 Number of doubly external CSFs:           2537250
 Total number of CSFs:                     2539885

 Molecular orbitals read from record     2100.2  Type=RHF/CANONICAL (state 1.1)

 Integral transformation finished. Total CPU:   1.61 sec, npass=  1  Memory used:  12.63 MW

 Starting RMP2 calculation

 ITER.      SQ.NORM     CORR.ENERGY   TOTAL ENERGY   ENERGY CHANGE        DEN1      VAR(S)    VAR(P)  DIIS     TIME
   1      1.24297875    -0.78634041  -268.05178421    -0.78634041    -0.00304878  0.20D-04  0.11D-02  1  1     2.09
   2      1.24561883    -0.78962828  -268.05507208    -0.00328787    -0.00000474  0.54D-06  0.19D-05  2  2     2.51
   3      1.24568436    -0.78967033  -268.05511413    -0.00004205    -0.00000003  0.16D-07  0.68D-08  3  3     2.97
   4      1.24568531    -0.78967034  -268.05511413    -0.00000000    -0.00000000  0.27D-09  0.38D-10  4  4     3.45
   5      1.24568540    -0.78967037  -268.05511416    -0.00000003    -0.00000000  0.25D-11  0.65D-12  5  5     3.96
   6      1.24568541    -0.78967038  -268.05511417    -0.00000001    -0.00000000  0.28D-13  0.87D-14  6  6     4.49
   7      1.24568541    -0.78967038  -268.05511417     0.00000000    -0.00000000  0.47D-15  0.12D-15  6  1     5.04
   8      1.24568541    -0.78967038  -268.05511417     0.00000000    -0.00000000  0.59D-17  0.13D-17  6  2     5.59

 Norm of t1 vector:      0.03892777      S-energy:    -0.00227113      T1 diagnostic:  0.00055030
 Norm of t2 vector:      0.49413565      P-energy:    -0.78739924
                                         Alpha-Beta:  -0.59337758
                                         Alpha-Alpha: -0.10094080
                                         Beta-Beta:   -0.09308087

 Spin contamination <S**2-Sz**2-Sz>     0.00104030
  Reference energy                   -267.265443794121
  RHF-RMP2 correlation energy          -0.789670375212
 !RHF-RMP2 energy                    -268.055114169333

 Starting UCCSD calculation

 ITER.      SQ.NORM     CORR.ENERGY   TOTAL ENERGY   ENERGY CHANGE        DEN1      VAR(S)    VAR(P)  DIIS     TIME
   1      1.26274086    -0.80900833  -268.07445212    -0.80900833    -0.02515013  0.38D-02  0.59D-02  1  1    15.23
   2      1.29150059    -0.83640952  -268.10185331    -0.02740119    -0.00201048  0.22D-03  0.66D-03  2  2    24.82
   3      1.30143673    -0.84090505  -268.10634885    -0.00449553    -0.00032461  0.19D-03  0.56D-04  3  3    34.41
   4      1.30634959    -0.84238181  -268.10782560    -0.00147675    -0.00007209  0.43D-04  0.14D-04  4  4    44.08
   5      1.30908019    -0.84276998  -268.10821378    -0.00038817    -0.00002366  0.19D-04  0.32D-05  5  5    53.71
   6      1.31101919    -0.84297447  -268.10841827    -0.00020449    -0.00000645  0.42D-05  0.12D-05  6  6    60.54
   7      1.31196751    -0.84303321  -268.10847700    -0.00005873    -0.00000207  0.14D-05  0.37D-06  6  2    67.42
   8      1.31240822    -0.84307583  -268.10851962    -0.00004262    -0.00000065  0.45D-06  0.11D-06  6  1    74.25
   9      1.31259288    -0.84308039  -268.10852419    -0.00000456    -0.00000022  0.15D-06  0.35D-07  6  4    81.07
  10      1.31265581    -0.84308330  -268.10852710    -0.00000291    -0.00000005  0.35D-07  0.95D-08  6  3    87.89
  11      1.31268527    -0.84308205  -268.10852584     0.00000125    -0.00000002  0.13D-07  0.28D-08  6  5    94.72
  12      1.31269563    -0.84308179  -268.10852559     0.00000026    -0.00000000  0.26D-08  0.95D-09  6  6   101.56
  13      1.31269448    -0.84308088  -268.10852468     0.00000091    -0.00000000  0.96D-09  0.28D-09  6  2   108.40
  14      1.31268927    -0.84308004  -268.10852383     0.00000084    -0.00000000  0.21D-09  0.67D-10  6  1   115.24
  15      1.31268519    -0.84307945  -268.10852325     0.00000059    -0.00000000  0.78D-10  0.19D-10  6  4   122.06
  16      1.31268201    -0.84307907  -268.10852286     0.00000038    -0.00000000  0.28D-10  0.63D-11  6  3   128.88
  17      1.31267981    -0.84307883  -268.10852262     0.00000024    -0.00000000  0.10D-10  0.24D-11  6  5   135.73
  18      1.31267891    -0.84307877  -268.10852256     0.00000006    -0.00000000  0.40D-11  0.87D-12  6  6   142.58
  19      1.31267830    -0.84307874  -268.10852253     0.00000003    -0.00000000  0.16D-11  0.37D-12  6  2   149.46
  20      1.31267799    -0.84307872  -268.10852252     0.00000001    -0.00000000  0.60D-12  0.13D-12  6  1   156.29
  21      1.31267782    -0.84307871  -268.10852251     0.00000001    -0.00000000  0.28D-12  0.58D-13  6  4   163.13
  22      1.31267770    -0.84307870  -268.10852250     0.00000001    -0.00000000  0.73D-13  0.21D-13  6  3   169.97
  23      1.31267765    -0.84307870  -268.10852250     0.00000000    -0.00000000  0.21D-13  0.62D-14  6  5   176.79
  24      1.31267764    -0.84307870  -268.10852250    -0.00000000    -0.00000000  0.67D-14  0.22D-14  6  6   183.56
  25      1.31267764    -0.84307870  -268.10852250    -0.00000000    -0.00000000  0.21D-14  0.52D-15  6  2   190.37
  26      1.31267765    -0.84307870  -268.10852250    -0.00000000    -0.00000000  0.76D-15  0.15D-15  6  1   197.24
  27      1.31267766    -0.84307871  -268.10852250    -0.00000000    -0.00000000  0.20D-15  0.62D-16  6  3   204.07
  28      1.31267766    -0.84307871  -268.10852250    -0.00000000    -0.00000000  0.29D-16  0.11D-16  6  4   210.89
  29      1.31267767    -0.84307871  -268.10852250    -0.00000000    -0.00000000  0.70D-17  0.29D-17  6  5   217.71
  30      1.31267767    -0.84307871  -268.10852250    -0.00000000    -0.00000000  0.15D-17  0.53D-18  6  6   224.57
  31      1.31267767    -0.84307871  -268.10852250    -0.00000000    -0.00000000  0.35D-18  0.10D-18  6  2   231.78

 Norm of t1 vector:      0.13871301      S-energy:    -0.00282054      T1 diagnostic:  0.01616935
                                                                       D1 diagnostic:  0.06284667
 Norm of t2 vector:      0.54169767      P-energy:    -0.84025817
                                         Alpha-Beta:  -0.66480632
                                         Alpha-Alpha: -0.09147642
                                         Beta-Beta:   -0.08397543

 Spin contamination <S**2-Sz**2-Sz>     0.00217015

 Memory could be reduced to 28.85 Mwords without degradation in triples
 

 RESULTS
 =======

  Reference energy                   -267.265443794121
  UCCSD singles energy                 -0.002820536543
  UCCSD pair energy                    -0.840258169683
  UCCSD correlation energy             -0.843078706227
  Triples (T) contribution             -0.024970988753
  Total correlation energy             -0.868049694979
 
  RHF-UCCSD energy                   -268.108522500347
  RHF-UCCSD[T] energy                -268.134829313611
  RHF-UCCSD-T energy                 -268.133072038809
 !RHF-UCCSD(T) energy                -268.133493489100

 Program statistics:

 Available memory in ccsd:               999997692
 Min. memory needed in ccsd:               7337057
 Max. memory used in ccsd:                10523002
 Max. memory used in cckext:              10867977 (31 integral passes)
 Max. memory used in cckint:              12633073 ( 1 integral passes)



 **********************************************************************************************************************************
 DATASETS  * FILE   NREC   LENGTH (MB)   RECORD NAMES
              1      18        3.17       500      610      700      900      950      970     1000      129      960     1100   
                                          VAR    BASINP    GEOM    SYMINP    ZMAT    AOBASIS   BASIS     P2S    ABASIS      S 
                                         1400     1410     1200     1210     1080     1600     1650     1700   
                                           T        V       H0       H01     AOSYM     SMH    MOLCAS    OPER   

              2       3        0.77       700     1000     2100   
                                         GEOM     BASIS     RHF  

 PROGRAMS   *        TOTAL  UCCSD(T)       RHF       INT
 CPU TIMES  *       312.30    309.58      1.39      1.22
 REAL TIME  *       325.37 SEC
 DISK USED  *         1.29 GB      
 SF USED    *       553.73 MB      
 GA USED    *         0.00 MB       (max)       0.00 MB       (current)
 **********************************************************************************************************************************

        UCCSD(T)        RHF-SCF 
   -268.13349349   -267.26544379
 **********************************************************************************************************************************
 Variable memory released
