
 Primary working directories    : /tmp/320938.768.gen4.q
 Secondary working directories  : /tmp/320938.768.gen4.q
 Wavefunction directory         : /home/vulcan/mel64643/wfu/
 Main file repository           : /tmp/320938.768.gen4.q/

 ARCHNAME  : Linux/x86_64
 FC        : /opt/intel/compilers_and_libraries_2016.1.150/linux/bin/intel64/ifort
 FCVERSION : 16.0.1
 BLASLIB   : -mkl
 id        : ccgc

 Nodes     nprocs
 n025         3
 Number of processes for MPI-2 version of Molpro:   nprocs(total)=    4   nprocs(compute)=    3   nprocs(helper)=    1
 ga_uses_ma=false, calling ma_init with nominal heap.
 GA-space will be limited to   8.0 MW (determined by -G option)

 Using customized tuning parameters: mindgm=10; mindgv=16; mindgc=4; mindgr=1; noblas=0; mincuda=1000; minvec=7
 default implementation of scratch files=sf  

 ***,Frequencies for min3
 memory,1000,m
 gthresh,energy=1.0d-10,orbital=1.0d-10,oneint=1.0d-16,twoint=1.0d-16,optgrad=1.0d-6,compress=1.0d-13
 geomtyp=xyz
 
  geometry = {
  12
  arbitrary comment
     C    1.776964391707    0.711398808326   -0.047331391796
     C    0.491811976407   -0.059992870174   -0.197129665366
     C    0.450331042376   -1.536293935297    0.101609264588
     O   -0.560794521494    0.727223516895    0.254650705618
     O   -1.837818950456    0.092275797423   -0.120529858834
     H    2.585454963843    0.211512725107   -0.613071116151
     H    1.660568357368    1.742967141344   -0.425201716533
     H    2.094695156204    0.773982248605    1.019055438411
     H   -0.504729883606   -1.982768096711   -0.220040612148
     H    1.282117603679   -2.047135142807   -0.416389067888
     H    0.561339760848   -1.719288581966    1.195253055206
     H   -1.987655637733    0.550890678841   -0.967289327067
  }
 
 basis=cc-pvdz
 {rhf;maxit,200}
 {uccsd(t);maxit,200}

 Variables initialized (661), CPU time= 0.01 sec
 Commands  initialized (458), CPU time= 0.01 sec, 486 directives.
 Default parameters read. Elapsed time= 0.07 sec

 Checking input...
 Passed
1


                                         ***  PROGRAM SYSTEM MOLPRO  ***
                         Copyright, University College Cardiff Consultants Limited, 2008

                                    Version 2010.1 linked May 16 2016 07:17:05


 **********************************************************************************************************************************
 LABEL *   Frequencies for min3                                                          
 Linux-4.4.3/n025(x86_64) 64 bit mpp version                                             DATE: 07-Mar-20          TIME: 05:29:50  
 **********************************************************************************************************************************

 SHA1:             9e8077add272b0f3cad6f7df79ec5211205f459d
 **********************************************************************************************************************************

 THRESHOLDS:

 ZERO    =  1.00D-12  ONEINT  =  1.00D-16  TWOINT  =  1.00D-16  PREFAC  =  1.00D-14  LOCALI  =  1.00D-09  EORDER  =  1.00D-04
 ENERGY  =  1.00D-10  ETEST   =  0.00D+00  EDENS   =  0.00D+00  THRDEDEF=  1.00D-06  GRADIENT=  1.00D-02  STEP    =  1.00D-03
 ORBITAL =  1.00D-10  CIVEC   =  1.00D-05  COEFF   =  1.00D-04  PRINTCI =  5.00D-02  PUNCHCI =  9.90D+01  OPTGRAD =  1.00D-06
 OPTENERG=  1.00D-06  OPTSTEP =  3.00D-04  THRGRAD =  1.00D-10  COMPRESS=  1.00D-13  VARMIN  =  1.00D-07  VARMAX  =  1.00D-03
 THRDOUB =  0.00D+00  THRDIV  =  1.00D-05  THRRED  =  1.00D-07  THRPSP  =  1.00D+00  THRDC   =  1.00D-10  THRCS   =  1.00D-10
 THRNRM  =  1.00D-08  THREQ   =  0.00D+00  THRDE   =  1.00D+00  THRREF  =  1.00D-05  SPARFAC =  1.00D+00  THRDLP  =  1.00D-07
 THRDIA  =  1.00D-10  THRDLS  =  1.00D-07  THRGPS  =  0.00D+00  THRKEX  =  0.00D+00  THRDIS  =  2.00D-01  THRVAR  =  1.00D-10
 THRLOC  =  1.00D-06  THRGAP  =  1.00D-06  THRLOCT = -1.00D+00  THRGAPT = -1.00D+00  THRORB  =  1.00D-06  THRMLTP =  0.00D+00
 THRCPQCI=  1.00D-10  KEXTA   =  0.00D+00  THRCOARS=  0.00D+00  SYMTOL  =  1.00D-06  GRADTOL =  1.00D-06  THROVL  =  1.00D-08
 THRORTH =  1.00D-08  GRID    =  1.00D-06  GRIDMAX =  1.00D-03  DTMAX   =  0.00D+00

 SETTING GEOMTYP        =    XYZ

 Variable memory set to 1000000000 words,  buffer space   230000 words

 SETTING BASIS          =    CC-PVDZ


 Recomputing integrals since basis changed


 Using spherical harmonics

 Library entry C      S cc-pVDZ              selected for orbital group  1
 Library entry C      P cc-pVDZ              selected for orbital group  1
 Library entry C      D cc-pVDZ              selected for orbital group  1
 Library entry O      S cc-pVDZ              selected for orbital group  2
 Library entry O      P cc-pVDZ              selected for orbital group  2
 Library entry O      D cc-pVDZ              selected for orbital group  2
 Library entry H      S cc-pVDZ              selected for orbital group  3
 Library entry H      P cc-pVDZ              selected for orbital group  3

1PROGRAM * SEWARD (Integral evaluation for generally contracted gaussian basis sets)     Author: Roland Lindh, 1990

 Geometry written to block  1 of record 700


 Point group  C1  



 ATOMIC COORDINATES

 NR  ATOM    CHARGE       X              Y              Z

   1  C       6.00    3.357976046    1.344348918   -0.089443368
   2  C       6.00    0.929389944   -0.113370094   -0.372521080
   3  C       6.00    0.851002339   -2.903174795    0.192013682
   4  O       8.00   -1.059748062    1.374253283    0.481220093
   5  O       8.00   -3.472974495    0.174375986   -0.227768424
   6  H       1.00    4.885801807    0.399701124   -1.158536509
   7  H       1.00    3.138019418    3.293730553   -0.803514795
   8  H       1.00    3.958400174    1.462614480    1.925735691
   9  H       1.00   -0.953801250   -3.746888685   -0.415816495
  10  H       1.00    2.422851139   -3.868524774   -0.786861302
  11  H       1.00    1.060778415   -3.248984561    2.258700932
  12  H       1.00   -3.756124799    1.041032511   -1.827911918

 Bond lengths in Bohr (Angstrom)

 1-2  2.846595891  1-6  2.090351921  1-7  2.087670396  1-8  2.106049030  2-3  2.847429434
     ( 1.506353669)     ( 1.106166596)     ( 1.104747593)     ( 1.114473148)     ( 1.506794761)

  2- 4  2.626512385   3- 9  2.082937024   3-10  2.088254168   3-11  2.105893298   4- 5  2.786760138
       ( 1.389890493)       ( 1.102242801)       ( 1.105056512)       ( 1.114390738)       ( 1.474689952)

  5-12  1.841664147
       ( 0.974566693)

 Bond angles

  1-2-3  120.36450473   1-2-4  108.89006718   2-1-6  109.95529553   2-1-7  110.74860696

  2- 1- 8  111.53935933   2- 3- 9  111.27595723   2- 3-10  109.83202590   2- 3-11  110.65347282

  2- 4- 5  109.22367437   3- 2- 4  118.01041570   4- 5-12   98.71801801   6- 1- 7  108.90778625

  6- 1- 8  107.84103861   7- 1- 8  107.75131949   9- 3-10  109.15728961   9- 3-11  107.82908503

 10- 3-11  108.00711129

 NUCLEAR CHARGE:                   41
 NUMBER OF PRIMITIVE AOS:         184
 NUMBER OF SYMMETRY AOS:          179
 NUMBER OF CONTRACTIONS:          105   ( 105A   )
 NUMBER OF CORE ORBITALS:           5   (   5A   )
 NUMBER OF VALENCE ORBITALS:       27   (  27A   )


 NUCLEAR REPULSION ENERGY  183.21000435


 Eigenvalues of metric

         1 0.345E-02 0.435E-02 0.105E-01 0.141E-01 0.182E-01 0.214E-01 0.331E-01 0.346E-01


 Contracted 2-electron integrals neglected if value below      1.0D-16
 AO integral compression algorithm  1   Integral accuracy      1.0D-16

     127.402 MB (compressed) written to integral file ( 93.4%)

     Node minimum: 35.914 MB, node maximum: 54.788 MB


 NUMBER OF SORTED TWO-ELECTRON INTEGRALS:    5164320.     BUFFER LENGTH:  32768
 NUMBER OF SEGMENTS:   1  SEGMENT LENGTH:    5164320      RECORD LENGTH: 524288

 Memory used in sort:       5.72 MW

 SORT1 READ    17075251. AND WROTE     5135894. INTEGRALS IN     15 RECORDS. CPU TIME:     0.36 SEC, REAL TIME:     0.40 SEC
 SORT2 READ    15396592. AND WROTE    15487395. INTEGRALS IN    420 RECORDS. CPU TIME:     0.13 SEC, REAL TIME:     0.16 SEC

 Node minimum:     5160610.  Node maximum:     5164320. integrals

 OPERATOR DM      FOR CENTER  0  COORDINATES:    0.000000    0.000000    0.000000


 **********************************************************************************************************************************
 DATASETS  * FILE   NREC   LENGTH (MB)   RECORD NAMES
              1      18        3.17       500      610      700      900      950      970     1000      129      960     1100   
                                          VAR    BASINP    GEOM    SYMINP    ZMAT    AOBASIS   BASIS     P2S    ABASIS      S 
                                         1400     1410     1200     1210     1080     1600     1650     1700   
                                           T        V       H0       H01     AOSYM     SMH    MOLCAS    OPER   

 PROGRAMS   *        TOTAL       INT
 CPU TIMES  *         1.81      1.71
 REAL TIME  *         2.11 SEC
 DISK USED  *       316.18 MB      
 GA USED    *         0.00 MB       (max)       0.00 MB       (current)
 **********************************************************************************************************************************

1PROGRAM * RHF-SCF (OPEN SHELL)       Authors: W. Meyer, H.-J. Werner


 NUMBER OF ELECTRONS:      21+   20-    SPACE SYMMETRY=1    SPIN SYMMETRY: Doublet 
 CONVERGENCE THRESHOLDS:    1.00E-10 (Density)    1.00E-11 (Energy)
 MAX. NUMBER OF ITERATIONS:      200
 INTERPOLATION TYPE:            DIIS
 INTERPOLATION STEPS:              2 (START)      1 (STEP)
 LEVEL SHIFTS:                 -0.30 (CLOSED)  0.00 (OPEN) 



 Orbital guess generated from atomic densities. Full valence occupancy:   32

 Molecular orbital dump at record        2100.2

 ITERATION    DDIFF          GRAD             ENERGY        2-EL.EN.            DIPOLE MOMENTS         DIIS
    1      0.000D+00      0.000D+00      -267.17821700    555.793942    0.57071    0.04978   -0.74924    0
    2      0.000D+00      0.617D-02      -267.24889059    555.716971    0.41439   -0.13095   -0.59891    1
    3      0.927D-02      0.214D-02      -267.26106235    555.634838    0.39406   -0.05905   -0.62645    2
    4      0.336D-02      0.912D-03      -267.26466552    555.786946    0.37941   -0.09919   -0.64289    3
    5      0.186D-02      0.363D-03      -267.26523273    555.758294    0.38193   -0.09269   -0.63586    4
    6      0.791D-03      0.110D-03      -267.26530867    555.744537    0.38019   -0.09249   -0.63861    5
    7      0.276D-03      0.510D-04      -267.26532865    555.741514    0.37947   -0.09223   -0.63809    6
    8      0.143D-03      0.272D-04      -267.26533467    555.739572    0.37975   -0.09234   -0.63830    7
    9      0.920D-04      0.115D-04      -267.26533558    555.739877    0.37993   -0.09230   -0.63806    8
   10      0.365D-04      0.500D-05      -267.26533574    555.740491    0.38019   -0.09231   -0.63812    9
   11      0.147D-04      0.196D-05      -267.26533576    555.740334    0.38024   -0.09231   -0.63813    9
   12      0.649D-05      0.669D-06      -267.26533577    555.740468    0.38026   -0.09231   -0.63812    9
   13      0.227D-05      0.226D-06      -267.26533577    555.740384    0.38026   -0.09231   -0.63812    9
   14      0.630D-06      0.755D-07      -267.26533577    555.740393    0.38026   -0.09231   -0.63812    9
   15      0.192D-06      0.298D-07      -267.26533577    555.740389    0.38027   -0.09231   -0.63812    9
   16      0.819D-07      0.144D-07      -267.26533577    555.740390    0.38027   -0.09231   -0.63812    9
   17      0.371D-07      0.744D-08      -267.26533577    555.740390    0.38027   -0.09231   -0.63812    9
   18      0.220D-07      0.340D-08      -267.26533577    555.740390    0.38027   -0.09231   -0.63812    9
   19      0.114D-07      0.132D-08      -267.26533577    555.740390    0.38027   -0.09231   -0.63812    9
   20      0.442D-08      0.562D-09      -267.26533577    555.740390    0.38027   -0.09231   -0.63812    9
   21      0.164D-08      0.284D-09      -267.26533577    555.740390    0.38027   -0.09231   -0.63812    9
   22      0.747D-09      0.161D-09      -267.26533577    555.740390    0.38027   -0.09231   -0.63812    9
   23      0.444D-09      0.791D-10      -267.26533577    555.740390    0.38027   -0.09231   -0.63812    9
   24      0.262D-09      0.315D-10      -267.26533577    555.740390    0.38027   -0.09231   -0.63812    9
   25      0.926D-10      0.128D-10      -267.26533577    555.740390    0.38027   -0.09231   -0.63812    0

 Final alpha occupancy:  21
 Final beta  occupancy:  20

 !RHF STATE 1.1 Energy               -267.265335765855
 Nuclear energy                       183.21000435
 One-electron energy                 -728.34553523
 Two-electron energy                  277.87019511
 Virial quotient                       -1.00156801
 !RHF STATE 1.1 Dipole moment           0.38026691    -0.09231224    -0.63812180
 Dipole moment /Debye                   0.96647877    -0.23461893    -1.62183761

 Orbital energies:

         1.1          2.1          3.1          4.1          5.1          6.1          7.1          8.1          9.1         10.1
    -20.630462   -20.628814   -11.279381   -11.238083   -11.232210    -1.470103    -1.240614    -1.023160    -0.945255    -0.768373

        11.1         12.1         13.1         14.1         15.1         16.1         17.1         18.1         19.1         20.1
     -0.704533    -0.643025    -0.626696    -0.588614    -0.545044    -0.543362    -0.538915    -0.516957    -0.492944    -0.469751

        21.1         22.1         23.1
     -0.352553     0.181295     0.183496


 **********************************************************************************************************************************
 DATASETS  * FILE   NREC   LENGTH (MB)   RECORD NAMES
              1      18        3.17       500      610      700      900      950      970     1000      129      960     1100   
                                          VAR    BASINP    GEOM    SYMINP    ZMAT    AOBASIS   BASIS     P2S    ABASIS      S 
                                         1400     1410     1200     1210     1080     1600     1650     1700   
                                           T        V       H0       H01     AOSYM     SMH    MOLCAS    OPER   

              2       3        0.77       700     1000     2100   
                                         GEOM     BASIS     RHF  

 PROGRAMS   *        TOTAL       RHF       INT
 CPU TIMES  *         3.79      1.98      1.71
 REAL TIME  *         4.27 SEC
 DISK USED  *       332.75 MB      
 SF USED    *         0.04 MB      
 GA USED    *         0.00 MB       (max)       0.00 MB       (current)
 **********************************************************************************************************************************


1PROGRAM * CCSD (Unrestricted open-shell coupled cluster)     Authors: C. Hampel, H.-J. Werner, 1991, M. Deegan, P.J. Knowles, 1992


 Convergence thresholds:  THRVAR = 1.00D-08  THRDEN = 1.00D-10

 CCSD(T)     terms to be evaluated (factor= 1.000)


 Number of core orbitals:           5 (   5 )
 Number of closed-shell orbitals:  15 (  15 )
 Number of active  orbitals:        1 (   1 )
 Number of external orbitals:      84 (  84 )

 Memory could be reduced to 24.91 Mwords without degradation in triples

 Number of N-1 electron functions:              31
 Number of N-2 electron functions:             465
 Number of singly external CSFs:              2635
 Number of doubly external CSFs:           2537250
 Total number of CSFs:                     2539885

 Molecular orbitals read from record     2100.2  Type=RHF/CANONICAL (state 1.1)

 Integral transformation finished. Total CPU:   1.62 sec, npass=  1  Memory used:  12.63 MW

 Starting RMP2 calculation

 ITER.      SQ.NORM     CORR.ENERGY   TOTAL ENERGY   ENERGY CHANGE        DEN1      VAR(S)    VAR(P)  DIIS     TIME
   1      1.24307883    -0.78641698  -268.05175275    -0.78641698    -0.00305112  0.20D-04  0.11D-02  1  1     2.10
   2      1.24572190    -0.78970747  -268.05504323    -0.00329048    -0.00000475  0.54D-06  0.19D-05  2  2     2.52
   3      1.24578752    -0.78974957  -268.05508533    -0.00004210    -0.00000003  0.16D-07  0.68D-08  3  3     2.97
   4      1.24578847    -0.78974957  -268.05508534    -0.00000000    -0.00000000  0.27D-09  0.38D-10  4  4     3.45
   5      1.24578856    -0.78974960  -268.05508537    -0.00000003    -0.00000000  0.25D-11  0.66D-12  5  5     3.96
   6      1.24578857    -0.78974961  -268.05508538    -0.00000001    -0.00000000  0.28D-13  0.87D-14  6  6     4.50
   7      1.24578857    -0.78974961  -268.05508538     0.00000000    -0.00000000  0.47D-15  0.12D-15  6  1     5.05
   8      1.24578857    -0.78974961  -268.05508538     0.00000000    -0.00000000  0.60D-17  0.13D-17  6  2     5.61

 Norm of t1 vector:      0.03891631      S-energy:    -0.00226943      T1 diagnostic:  0.00055067
 Norm of t2 vector:      0.49424092      P-energy:    -0.78748018
                                         Alpha-Beta:  -0.59345658
                                         Alpha-Alpha: -0.10094214
                                         Beta-Beta:   -0.09308146

 Spin contamination <S**2-Sz**2-Sz>     0.00103987
  Reference energy                   -267.265335765856
  RHF-RMP2 correlation energy          -0.789749609217
 !RHF-RMP2 energy                    -268.055085375072

 Starting UCCSD calculation

 ITER.      SQ.NORM     CORR.ENERGY   TOTAL ENERGY   ENERGY CHANGE        DEN1      VAR(S)    VAR(P)  DIIS     TIME
   1      1.26285669    -0.80908270  -268.07441847    -0.80908270    -0.02516440  0.38D-02  0.59D-02  1  1    12.46
   2      1.29164661    -0.83650076  -268.10183652    -0.02741805    -0.00201261  0.22D-03  0.66D-03  2  2    19.15
   3      1.30159594    -0.84100209  -268.10633786    -0.00450134    -0.00032487  0.19D-03  0.56D-04  3  3    25.86
   4      1.30651252    -0.84248036  -268.10781612    -0.00147827    -0.00007211  0.43D-04  0.14D-04  4  4    32.64
   5      1.30924308    -0.84286867  -268.10820444    -0.00038831    -0.00002367  0.19D-04  0.32D-05  5  5    39.47
   6      1.31118178    -0.84307317  -268.10840894    -0.00020450    -0.00000645  0.42D-05  0.12D-05  6  6    46.31
   7      1.31212977    -0.84313189  -268.10846765    -0.00005871    -0.00000207  0.14D-05  0.37D-06  6  2    53.11
   8      1.31256993    -0.84317449  -268.10851026    -0.00004261    -0.00000065  0.44D-06  0.11D-06  6  1    59.92
   9      1.31275403    -0.84317904  -268.10851480    -0.00000454    -0.00000022  0.15D-06  0.35D-07  6  4    66.75
  10      1.31281677    -0.84318196  -268.10851773    -0.00000292    -0.00000005  0.34D-07  0.95D-08  6  3    73.60
  11      1.31284607    -0.84318069  -268.10851646     0.00000127    -0.00000002  0.13D-07  0.28D-08  6  5    80.41
  12      1.31285637    -0.84318043  -268.10851619     0.00000027    -0.00000000  0.26D-08  0.95D-09  6  6    87.22
  13      1.31285523    -0.84317951  -268.10851528     0.00000091    -0.00000000  0.96D-09  0.28D-09  6  2    94.03
  14      1.31285003    -0.84317867  -268.10851444     0.00000084    -0.00000000  0.21D-09  0.67D-10  6  1   100.87
  15      1.31284597    -0.84317809  -268.10851385     0.00000058    -0.00000000  0.78D-10  0.19D-10  6  4   107.66
  16      1.31284278    -0.84317770  -268.10851347     0.00000038    -0.00000000  0.28D-10  0.63D-11  6  3   114.52
  17      1.31284059    -0.84317746  -268.10851323     0.00000024    -0.00000000  0.10D-10  0.24D-11  6  5   121.33
  18      1.31283969    -0.84317740  -268.10851317     0.00000006    -0.00000000  0.40D-11  0.87D-12  6  6   128.14
  19      1.31283908    -0.84317737  -268.10851314     0.00000003    -0.00000000  0.16D-11  0.37D-12  6  2   135.87
  20      1.31283876    -0.84317736  -268.10851312     0.00000001    -0.00000000  0.59D-12  0.13D-12  6  1   145.90
  21      1.31283860    -0.84317735  -268.10851311     0.00000001    -0.00000000  0.28D-12  0.58D-13  6  4   155.85
  22      1.31283848    -0.84317734  -268.10851311     0.00000001    -0.00000000  0.73D-13  0.21D-13  6  3   165.70
  23      1.31283842    -0.84317734  -268.10851310     0.00000000    -0.00000000  0.21D-13  0.62D-14  6  5   174.76
  24      1.31283842    -0.84317734  -268.10851310    -0.00000000    -0.00000000  0.67D-14  0.22D-14  6  6   182.46
  25      1.31283842    -0.84317734  -268.10851311    -0.00000000    -0.00000000  0.21D-14  0.52D-15  6  2   190.95
  26      1.31283843    -0.84317734  -268.10851311    -0.00000000    -0.00000000  0.77D-15  0.15D-15  6  1   199.01
  27      1.31283844    -0.84317734  -268.10851311    -0.00000000    -0.00000000  0.20D-15  0.62D-16  6  3   207.23
  28      1.31283844    -0.84317734  -268.10851311    -0.00000000    -0.00000000  0.29D-16  0.11D-16  6  4   215.46
  29      1.31283844    -0.84317734  -268.10851311    -0.00000000    -0.00000000  0.70D-17  0.29D-17  6  5   223.68
  30      1.31283844    -0.84317734  -268.10851311    -0.00000000    -0.00000000  0.15D-17  0.54D-18  6  6   231.56
  31      1.31283844    -0.84317734  -268.10851311    -0.00000000    -0.00000000  0.35D-18  0.10D-18  6  2   239.79

 Norm of t1 vector:      0.13871787      S-energy:    -0.00281868      T1 diagnostic:  0.01617080
                                                                       D1 diagnostic:  0.06285295
 Norm of t2 vector:      0.54184481      P-energy:    -0.84035866
                                         Alpha-Beta:  -0.66491850
                                         Alpha-Alpha: -0.09147118
                                         Beta-Beta:   -0.08396899

 Spin contamination <S**2-Sz**2-Sz>     0.00216733

 Memory could be reduced to 28.85 Mwords without degradation in triples
 

 RESULTS
 =======

  Reference energy                   -267.265335765856
  UCCSD singles energy                 -0.002818679865
  UCCSD pair energy                    -0.840358661403
  UCCSD correlation energy             -0.843177341268
  Triples (T) contribution             -0.024982665921
  Total correlation energy             -0.868160007189
 
  RHF-UCCSD energy                   -268.108513107123
  RHF-UCCSD[T] energy                -268.134832588181
  RHF-UCCSD-T energy                 -268.133073820234
 !RHF-UCCSD(T) energy                -268.133495773044

 Program statistics:

 Available memory in ccsd:               999997692
 Min. memory needed in ccsd:               7337057
 Max. memory used in ccsd:                10523002
 Max. memory used in cckext:              10867977 (31 integral passes)
 Max. memory used in cckint:              12633073 ( 1 integral passes)



 **********************************************************************************************************************************
 DATASETS  * FILE   NREC   LENGTH (MB)   RECORD NAMES
              1      18        3.17       500      610      700      900      950      970     1000      129      960     1100   
                                          VAR    BASINP    GEOM    SYMINP    ZMAT    AOBASIS   BASIS     P2S    ABASIS      S 
                                         1400     1410     1200     1210     1080     1600     1650     1700   
                                           T        V       H0       H01     AOSYM     SMH    MOLCAS    OPER   

              2       3        0.77       700     1000     2100   
                                         GEOM     BASIS     RHF  

 PROGRAMS   *        TOTAL  UCCSD(T)       RHF       INT
 CPU TIMES  *       321.62    317.82      1.98      1.71
 REAL TIME  *       336.63 SEC
 DISK USED  *         1.30 GB      
 SF USED    *       553.73 MB      
 GA USED    *         0.00 MB       (max)       0.00 MB       (current)
 **********************************************************************************************************************************

        UCCSD(T)        RHF-SCF 
   -268.13349577   -267.26533577
 **********************************************************************************************************************************
 Variable memory released
