
 Primary working directories    : /tmp/320938.266.gen4.q
 Secondary working directories  : /tmp/320938.266.gen4.q
 Wavefunction directory         : /home/vulcan/mel64643/wfu/
 Main file repository           : /tmp/320938.266.gen4.q/

 ARCHNAME  : Linux/x86_64
 FC        : /opt/intel/compilers_and_libraries_2016.1.150/linux/bin/intel64/ifort
 FCVERSION : 16.0.1
 BLASLIB   : -mkl
 id        : ccgc

 Nodes     nprocs
 n033         3
 Number of processes for MPI-2 version of Molpro:   nprocs(total)=    4   nprocs(compute)=    3   nprocs(helper)=    1
 ga_uses_ma=false, calling ma_init with nominal heap.
 GA-space will be limited to   8.0 MW (determined by -G option)

 Using customized tuning parameters: mindgm=10; mindgv=16; mindgc=4; mindgr=1; noblas=0; mincuda=1000; minvec=7
 default implementation of scratch files=sf  

 ***,Frequencies for min3
 memory,1000,m
 gthresh,energy=1.0d-10,orbital=1.0d-10,oneint=1.0d-16,twoint=1.0d-16,optgrad=1.0d-6,compress=1.0d-13
 geomtyp=xyz
 
  geometry = {
  12
  arbitrary comment
     C    1.776964391707    0.711398808326   -0.047331391796
     C    0.491811976407   -0.060647109602   -0.196481536427
     C    0.450429566951   -1.536073088709    0.101361921777
     O   -0.560831744173    0.727377799242    0.254491027979
     O   -1.838218891877    0.092372001639   -0.120542305993
     H    2.586203666866    0.211720377135   -0.611377299574
     H    1.661208409552    1.743107496812   -0.426422344508
     H    2.095911762598    0.774223104903    1.017728690055
     H   -0.503981452241   -1.982629494104   -0.220156157065
     H    1.282788781078   -2.046996894789   -0.417204916784
     H    0.562644250754   -1.719046883998    1.194699082653
     H   -1.987220101737    0.550968197232   -0.966990747250
  }
 
 basis=cc-pvdz
 {rhf;maxit,200}
 {uccsd(t);maxit,200}

 Variables initialized (661), CPU time= 0.01 sec
 Commands  initialized (458), CPU time= 0.00 sec, 486 directives.
 Default parameters read. Elapsed time= 0.06 sec

 Checking input...
 Passed
1


                                         ***  PROGRAM SYSTEM MOLPRO  ***
                         Copyright, University College Cardiff Consultants Limited, 2008

                                    Version 2010.1 linked May 16 2016 07:17:05


 **********************************************************************************************************************************
 LABEL *   Frequencies for min3                                                          
 Linux-4.4.3/n033(x86_64) 64 bit mpp version                                             DATE: 07-Mar-20          TIME: 02:30:50  
 **********************************************************************************************************************************

 SHA1:             9e8077add272b0f3cad6f7df79ec5211205f459d
 **********************************************************************************************************************************

 THRESHOLDS:

 ZERO    =  1.00D-12  ONEINT  =  1.00D-16  TWOINT  =  1.00D-16  PREFAC  =  1.00D-14  LOCALI  =  1.00D-09  EORDER  =  1.00D-04
 ENERGY  =  1.00D-10  ETEST   =  0.00D+00  EDENS   =  0.00D+00  THRDEDEF=  1.00D-06  GRADIENT=  1.00D-02  STEP    =  1.00D-03
 ORBITAL =  1.00D-10  CIVEC   =  1.00D-05  COEFF   =  1.00D-04  PRINTCI =  5.00D-02  PUNCHCI =  9.90D+01  OPTGRAD =  1.00D-06
 OPTENERG=  1.00D-06  OPTSTEP =  3.00D-04  THRGRAD =  1.00D-10  COMPRESS=  1.00D-13  VARMIN  =  1.00D-07  VARMAX  =  1.00D-03
 THRDOUB =  0.00D+00  THRDIV  =  1.00D-05  THRRED  =  1.00D-07  THRPSP  =  1.00D+00  THRDC   =  1.00D-10  THRCS   =  1.00D-10
 THRNRM  =  1.00D-08  THREQ   =  0.00D+00  THRDE   =  1.00D+00  THRREF  =  1.00D-05  SPARFAC =  1.00D+00  THRDLP  =  1.00D-07
 THRDIA  =  1.00D-10  THRDLS  =  1.00D-07  THRGPS  =  0.00D+00  THRKEX  =  0.00D+00  THRDIS  =  2.00D-01  THRVAR  =  1.00D-10
 THRLOC  =  1.00D-06  THRGAP  =  1.00D-06  THRLOCT = -1.00D+00  THRGAPT = -1.00D+00  THRORB  =  1.00D-06  THRMLTP =  0.00D+00
 THRCPQCI=  1.00D-10  KEXTA   =  0.00D+00  THRCOARS=  0.00D+00  SYMTOL  =  1.00D-06  GRADTOL =  1.00D-06  THROVL  =  1.00D-08
 THRORTH =  1.00D-08  GRID    =  1.00D-06  GRIDMAX =  1.00D-03  DTMAX   =  0.00D+00

 SETTING GEOMTYP        =    XYZ

 Variable memory set to 1000000000 words,  buffer space   230000 words

 SETTING BASIS          =    CC-PVDZ


 Recomputing integrals since basis changed


 Using spherical harmonics

 Library entry C      S cc-pVDZ              selected for orbital group  1
 Library entry C      P cc-pVDZ              selected for orbital group  1
 Library entry C      D cc-pVDZ              selected for orbital group  1
 Library entry O      S cc-pVDZ              selected for orbital group  2
 Library entry O      P cc-pVDZ              selected for orbital group  2
 Library entry O      D cc-pVDZ              selected for orbital group  2
 Library entry H      S cc-pVDZ              selected for orbital group  3
 Library entry H      P cc-pVDZ              selected for orbital group  3

1PROGRAM * SEWARD (Integral evaluation for generally contracted gaussian basis sets)     Author: Roland Lindh, 1990

 Geometry written to block  1 of record 700


 Point group  C1  



 ATOMIC COORDINATES

 NR  ATOM    CHARGE       X              Y              Z

   1  C       6.00    3.357976046    1.344348918   -0.089443368
   2  C       6.00    0.929389944   -0.114606428   -0.371296294
   3  C       6.00    0.851188523   -2.902757456    0.191546272
   4  O       8.00   -1.059818402    1.374544835    0.480918346
   5  O       8.00   -3.473730275    0.174557785   -0.227791946
   6  H       1.00    4.887216650    0.400093529   -1.155335659
   7  H       1.00    3.139228941    3.293995787   -0.805821447
   8  H       1.00    3.960699227    1.463069633    1.923228500
   9  H       1.00   -0.952386920   -3.746626764   -0.416034843
  10  H       1.00    2.424119481   -3.868263523   -0.788403033
  11  H       1.00    1.063243543   -3.248527818    2.257654076
  12  H       1.00   -3.755301755    1.041179000   -1.827347684

 Bond lengths in Bohr (Angstrom)

 1-2  2.847107695  1-6  2.089574465  1-7  2.088581040  1-8  2.104333123  2-3  2.845468919
     ( 1.506624504)     ( 1.105755183)     ( 1.105229486)     ( 1.113565129)     ( 1.505757301)

  2- 4  2.626935690   3- 9  2.081863252   3-10  2.089644564   3-11  2.105546468   4- 5  2.787330215
       ( 1.390114496)       ( 1.101674585)       ( 1.105792278)       ( 1.114207204)       ( 1.474991624)

  5-12  1.840894725
       ( 0.974159533)

 Bond angles

  1-2-3  120.39596585   1-2-4  108.86377917   2-1-6  110.01106960   2-1-7  110.79664883

  2- 1- 8  111.58683306   2- 3- 9  111.30050923   2- 3-10  109.83351484   2- 3-11  110.62445134

  2- 4- 5  109.22346249   3- 2- 4  118.06531193   4- 5-12   98.66870410   6- 1- 7  108.87564103

  6- 1- 8  107.68362992   7- 1- 8  107.78168327   9- 3-10  109.14497246   9- 3-11  107.88234943

 10- 3-11  107.96800561

 NUCLEAR CHARGE:                   41
 NUMBER OF PRIMITIVE AOS:         184
 NUMBER OF SYMMETRY AOS:          179
 NUMBER OF CONTRACTIONS:          105   ( 105A   )
 NUMBER OF CORE ORBITALS:           5   (   5A   )
 NUMBER OF VALENCE ORBITALS:       27   (  27A   )


 NUCLEAR REPULSION ENERGY  183.20893329


 Eigenvalues of metric

         1 0.345E-02 0.435E-02 0.105E-01 0.141E-01 0.182E-01 0.214E-01 0.331E-01 0.346E-01


 Contracted 2-electron integrals neglected if value below      1.0D-16
 AO integral compression algorithm  1   Integral accuracy      1.0D-16

     127.402 MB (compressed) written to integral file ( 93.4%)

     Node minimum: 41.157 MB, node maximum: 44.302 MB


 NUMBER OF SORTED TWO-ELECTRON INTEGRALS:    5164320.     BUFFER LENGTH:  32768
 NUMBER OF SEGMENTS:   1  SEGMENT LENGTH:    5164320      RECORD LENGTH: 524288

 Memory used in sort:       5.72 MW

 SORT1 READ    17075251. AND WROTE     5135859. INTEGRALS IN     15 RECORDS. CPU TIME:     0.24 SEC, REAL TIME:     0.28 SEC
 SORT2 READ    15396462. AND WROTE    15487395. INTEGRALS IN    471 RECORDS. CPU TIME:     0.07 SEC, REAL TIME:     0.12 SEC

 Node minimum:     5160610.  Node maximum:     5164320. integrals

 OPERATOR DM      FOR CENTER  0  COORDINATES:    0.000000    0.000000    0.000000


 **********************************************************************************************************************************
 DATASETS  * FILE   NREC   LENGTH (MB)   RECORD NAMES
              1      18        3.17       500      610      700      900      950      970     1000      129      960     1100   
                                          VAR    BASINP    GEOM    SYMINP    ZMAT    AOBASIS   BASIS     P2S    ABASIS      S 
                                         1400     1410     1200     1210     1080     1600     1650     1700   
                                           T        V       H0       H01     AOSYM     SMH    MOLCAS    OPER   

 PROGRAMS   *        TOTAL       INT
 CPU TIMES  *         1.29      1.23
 REAL TIME  *         1.59 SEC
 DISK USED  *       305.69 MB      
 GA USED    *         0.00 MB       (max)       0.00 MB       (current)
 **********************************************************************************************************************************

1PROGRAM * RHF-SCF (OPEN SHELL)       Authors: W. Meyer, H.-J. Werner


 NUMBER OF ELECTRONS:      21+   20-    SPACE SYMMETRY=1    SPIN SYMMETRY: Doublet 
 CONVERGENCE THRESHOLDS:    1.00E-10 (Density)    1.00E-11 (Energy)
 MAX. NUMBER OF ITERATIONS:      200
 INTERPOLATION TYPE:            DIIS
 INTERPOLATION STEPS:              2 (START)      1 (STEP)
 LEVEL SHIFTS:                 -0.30 (CLOSED)  0.00 (OPEN) 



 Orbital guess generated from atomic densities. Full valence occupancy:   32

 Molecular orbital dump at record        2100.2

 ITERATION    DDIFF          GRAD             ENERGY        2-EL.EN.            DIPOLE MOMENTS         DIIS
    1      0.000D+00      0.000D+00      -267.17818167    555.793273    0.57393    0.04746   -0.74932    0
    2      0.000D+00      0.617D-02      -267.24887007    555.712310    0.41595   -0.13244   -0.59866    1
    3      0.927D-02      0.214D-02      -267.26105295    555.630879    0.39549   -0.06030   -0.62607    2
    4      0.336D-02      0.912D-03      -267.26466336    555.782919    0.38061   -0.10040   -0.64247    3
    5      0.186D-02      0.364D-03      -267.26523290    555.754234    0.38306   -0.09387   -0.63543    4
    6      0.793D-03      0.110D-03      -267.26530937    555.740509    0.38130   -0.09367   -0.63817    5
    7      0.277D-03      0.512D-04      -267.26532956    555.737477    0.38057   -0.09341   -0.63765    6
    8      0.144D-03      0.273D-04      -267.26533565    555.735538    0.38085   -0.09353   -0.63787    7
    9      0.926D-04      0.115D-04      -267.26533657    555.735849    0.38104   -0.09349   -0.63762    8
   10      0.367D-04      0.502D-05      -267.26533672    555.736463    0.38130   -0.09350   -0.63769    9
   11      0.147D-04      0.197D-05      -267.26533675    555.736305    0.38135   -0.09350   -0.63769    9
   12      0.652D-05      0.672D-06      -267.26533675    555.736439    0.38137   -0.09350   -0.63769    9
   13      0.228D-05      0.227D-06      -267.26533675    555.736354    0.38137   -0.09350   -0.63769    9
   14      0.633D-06      0.759D-07      -267.26533675    555.736363    0.38137   -0.09350   -0.63769    9
   15      0.193D-06      0.301D-07      -267.26533675    555.736359    0.38137   -0.09350   -0.63769    9
   16      0.827D-07      0.146D-07      -267.26533675    555.736361    0.38137   -0.09350   -0.63769    9
   17      0.376D-07      0.753D-08      -267.26533675    555.736361    0.38137   -0.09350   -0.63769    9
   18      0.223D-07      0.343D-08      -267.26533675    555.736361    0.38137   -0.09350   -0.63769    9
   19      0.115D-07      0.134D-08      -267.26533675    555.736361    0.38137   -0.09350   -0.63769    9
   20      0.445D-08      0.569D-09      -267.26533675    555.736361    0.38137   -0.09350   -0.63769    9
   21      0.166D-08      0.288D-09      -267.26533675    555.736361    0.38137   -0.09350   -0.63769    9
   22      0.757D-09      0.163D-09      -267.26533675    555.736361    0.38137   -0.09350   -0.63769    9
   23      0.449D-09      0.800D-10      -267.26533675    555.736361    0.38137   -0.09350   -0.63769    9
   24      0.265D-09      0.318D-10      -267.26533675    555.736361    0.38137   -0.09350   -0.63769    9
   25      0.937D-10      0.130D-10      -267.26533675    555.736361    0.38137   -0.09350   -0.63769    0

 Final alpha occupancy:  21
 Final beta  occupancy:  20

 !RHF STATE 1.1 Energy               -267.265336754895
 Nuclear energy                       183.20893329
 One-electron energy                 -728.34245048
 Two-electron energy                  277.86818044
 Virial quotient                       -1.00156034
 !RHF STATE 1.1 Dipole moment           0.38137164    -0.09349795    -0.63768601
 Dipole moment /Debye                   0.96928653    -0.23763253    -1.62073001

 Orbital energies:

         1.1          2.1          3.1          4.1          5.1          6.1          7.1          8.1          9.1         10.1
    -20.630478   -20.628797   -11.279341   -11.237999   -11.232222    -1.469994    -1.240663    -1.023311    -0.945375    -0.768364

        11.1         12.1         13.1         14.1         15.1         16.1         17.1         18.1         19.1         20.1
     -0.704554    -0.643088    -0.626656    -0.588745    -0.545180    -0.543393    -0.538830    -0.516932    -0.492968    -0.469950

        21.1         22.1         23.1
     -0.352411     0.181287     0.183518


 **********************************************************************************************************************************
 DATASETS  * FILE   NREC   LENGTH (MB)   RECORD NAMES
              1      18        3.17       500      610      700      900      950      970     1000      129      960     1100   
                                          VAR    BASINP    GEOM    SYMINP    ZMAT    AOBASIS   BASIS     P2S    ABASIS      S 
                                         1400     1410     1200     1210     1080     1600     1650     1700   
                                           T        V       H0       H01     AOSYM     SMH    MOLCAS    OPER   

              2       3        0.77       700     1000     2100   
                                         GEOM     BASIS     RHF  

 PROGRAMS   *        TOTAL       RHF       INT
 CPU TIMES  *         2.84      1.55      1.23
 REAL TIME  *         3.29 SEC
 DISK USED  *       322.26 MB      
 SF USED    *         0.04 MB      
 GA USED    *         0.00 MB       (max)       0.00 MB       (current)
 **********************************************************************************************************************************


1PROGRAM * CCSD (Unrestricted open-shell coupled cluster)     Authors: C. Hampel, H.-J. Werner, 1991, M. Deegan, P.J. Knowles, 1992


 Convergence thresholds:  THRVAR = 1.00D-08  THRDEN = 1.00D-10

 CCSD(T)     terms to be evaluated (factor= 1.000)


 Number of core orbitals:           5 (   5 )
 Number of closed-shell orbitals:  15 (  15 )
 Number of active  orbitals:        1 (   1 )
 Number of external orbitals:      84 (  84 )

 Memory could be reduced to 24.91 Mwords without degradation in triples

 Number of N-1 electron functions:              31
 Number of N-2 electron functions:             465
 Number of singly external CSFs:              2635
 Number of doubly external CSFs:           2537250
 Total number of CSFs:                     2539885

 Molecular orbitals read from record     2100.2  Type=RHF/CANONICAL (state 1.1)

 Integral transformation finished. Total CPU:   1.60 sec, npass=  1  Memory used:  12.63 MW

 Starting RMP2 calculation

 ITER.      SQ.NORM     CORR.ENERGY   TOTAL ENERGY   ENERGY CHANGE        DEN1      VAR(S)    VAR(P)  DIIS     TIME
   1      1.24307605    -0.78642331  -268.05176006    -0.78642331    -0.00305083  0.20D-04  0.11D-02  1  1     2.08
   2      1.24571893    -0.78971346  -268.05505021    -0.00329015    -0.00000475  0.54D-06  0.19D-05  2  2     2.50
   3      1.24578454    -0.78975556  -268.05509231    -0.00004210    -0.00000003  0.16D-07  0.68D-08  3  3     2.95
   4      1.24578549    -0.78975556  -268.05509231    -0.00000000    -0.00000000  0.27D-09  0.38D-10  4  4     3.43
   5      1.24578558    -0.78975559  -268.05509235    -0.00000003    -0.00000000  0.25D-11  0.65D-12  5  5     3.93
   6      1.24578559    -0.78975560  -268.05509235    -0.00000001    -0.00000000  0.28D-13  0.87D-14  6  6     4.47
   7      1.24578559    -0.78975560  -268.05509235     0.00000000    -0.00000000  0.47D-15  0.12D-15  6  1     5.02
   8      1.24578559    -0.78975560  -268.05509235     0.00000000    -0.00000000  0.60D-17  0.13D-17  6  2     5.57

 Norm of t1 vector:      0.03893499      S-energy:    -0.00227174      T1 diagnostic:  0.00055041
 Norm of t2 vector:      0.49423644      P-energy:    -0.78748385
                                         Alpha-Beta:  -0.59345578
                                         Alpha-Alpha: -0.10094434
                                         Beta-Beta:   -0.09308373

 Spin contamination <S**2-Sz**2-Sz>     0.00104030
  Reference energy                   -267.265336754895
  RHF-RMP2 correlation energy          -0.789755595916
 !RHF-RMP2 energy                    -268.055092350811

 Starting UCCSD calculation

 ITER.      SQ.NORM     CORR.ENERGY   TOTAL ENERGY   ENERGY CHANGE        DEN1      VAR(S)    VAR(P)  DIIS     TIME
   1      1.26284530    -0.80908145  -268.07441821    -0.80908145    -0.02516473  0.38D-02  0.59D-02  1  1    15.37
   2      1.29163348    -0.83649826  -268.10183501    -0.02741680    -0.00201299  0.22D-03  0.66D-03  2  2    25.11
   3      1.30158358    -0.84099970  -268.10633646    -0.00450145    -0.00032491  0.19D-03  0.56D-04  3  3    34.86
   4      1.30650155    -0.84247824  -268.10781499    -0.00147853    -0.00007212  0.43D-04  0.14D-04  4  4    44.47
   5      1.30923225    -0.84286654  -268.10820329    -0.00038830    -0.00002368  0.19D-04  0.32D-05  5  5    54.25
   6      1.31117121    -0.84307105  -268.10840780    -0.00020451    -0.00000646  0.42D-05  0.12D-05  6  6    64.21
   7      1.31212024    -0.84312980  -268.10846655    -0.00005875    -0.00000208  0.14D-05  0.37D-06  6  2    73.91
   8      1.31256187    -0.84317251  -268.10850926    -0.00004271    -0.00000065  0.45D-06  0.11D-06  6  1    83.74
   9      1.31274695    -0.84317709  -268.10851384    -0.00000458    -0.00000022  0.15D-06  0.35D-07  6  4    93.55
  10      1.31281016    -0.84318003  -268.10851678    -0.00000294    -0.00000005  0.35D-07  0.95D-08  6  3   103.92
  11      1.31283970    -0.84317876  -268.10851552     0.00000126    -0.00000002  0.13D-07  0.28D-08  6  5   110.75
  12      1.31285008    -0.84317850  -268.10851525     0.00000026    -0.00000000  0.26D-08  0.96D-09  6  6   117.56
  13      1.31284894    -0.84317758  -268.10851434     0.00000092    -0.00000000  0.97D-09  0.29D-09  6  2   124.36
  14      1.31284374    -0.84317674  -268.10851349     0.00000084    -0.00000000  0.21D-09  0.68D-10  6  1   131.18
  15      1.31283966    -0.84317615  -268.10851291     0.00000059    -0.00000000  0.78D-10  0.19D-10  6  4   138.00
  16      1.31283647    -0.84317577  -268.10851252     0.00000038    -0.00000000  0.28D-10  0.63D-11  6  3   144.82
  17      1.31283427    -0.84317553  -268.10851229     0.00000024    -0.00000000  0.10D-10  0.24D-11  6  5   151.59
  18      1.31283337    -0.84317547  -268.10851223     0.00000006    -0.00000000  0.41D-11  0.87D-12  6  6   158.40
  19      1.31283276    -0.84317544  -268.10851219     0.00000003    -0.00000000  0.16D-11  0.37D-12  6  2   165.21
  20      1.31283244    -0.84317542  -268.10851218     0.00000001    -0.00000000  0.60D-12  0.13D-12  6  1   172.02
  21      1.31283227    -0.84317541  -268.10851217     0.00000001    -0.00000000  0.28D-12  0.58D-13  6  4   178.81
  22      1.31283215    -0.84317541  -268.10851216     0.00000001    -0.00000000  0.74D-13  0.21D-13  6  3   185.64
  23      1.31283209    -0.84317540  -268.10851216     0.00000000    -0.00000000  0.21D-13  0.63D-14  6  5   193.37
  24      1.31283209    -0.84317540  -268.10851216    -0.00000000    -0.00000000  0.68D-14  0.23D-14  6  6   203.32
  25      1.31283209    -0.84317540  -268.10851216    -0.00000000    -0.00000000  0.21D-14  0.53D-15  6  2   213.36
  26      1.31283210    -0.84317541  -268.10851216    -0.00000000    -0.00000000  0.77D-15  0.15D-15  6  1   222.94
  27      1.31283211    -0.84317541  -268.10851216    -0.00000000    -0.00000000  0.20D-15  0.63D-16  6  3   231.80
  28      1.31283211    -0.84317541  -268.10851216    -0.00000000    -0.00000000  0.30D-16  0.11D-16  6  4   240.04
  29      1.31283212    -0.84317541  -268.10851216    -0.00000000    -0.00000000  0.71D-17  0.29D-17  6  5   248.26
  30      1.31283212    -0.84317541  -268.10851216    -0.00000000    -0.00000000  0.15D-17  0.54D-18  6  6   256.48
  31      1.31283212    -0.84317541  -268.10851216    -0.00000000    -0.00000000  0.36D-18  0.11D-18  6  2   264.67

 Norm of t1 vector:      0.13874316      S-energy:    -0.00282152      T1 diagnostic:  0.01617270
                                                                       D1 diagnostic:  0.06284866
 Norm of t2 vector:      0.54183249      P-energy:    -0.84035388
                                         Alpha-Beta:  -0.66491037
                                         Alpha-Alpha: -0.09147260
                                         Beta-Beta:   -0.08397091

 Spin contamination <S**2-Sz**2-Sz>     0.00217053

 Memory could be reduced to 28.85 Mwords without degradation in triples
 

 RESULTS
 =======

  Reference energy                   -267.265336754895
  UCCSD singles energy                 -0.002821524152
  UCCSD pair energy                    -0.840353882534
  UCCSD correlation energy             -0.843175406686
  Triples (T) contribution             -0.024984003586
  Total correlation energy             -0.868159410272
 
  RHF-UCCSD energy                   -268.108512161581
  RHF-UCCSD[T] energy                -268.134833120263
  RHF-UCCSD-T energy                 -268.133074323647
 !RHF-UCCSD(T) energy                -268.133496165167

 Program statistics:

 Available memory in ccsd:               999997692
 Min. memory needed in ccsd:               7337057
 Max. memory used in ccsd:                10523002
 Max. memory used in cckext:              10867977 (31 integral passes)
 Max. memory used in cckint:              12633073 ( 1 integral passes)



 **********************************************************************************************************************************
 DATASETS  * FILE   NREC   LENGTH (MB)   RECORD NAMES
              1      18        3.17       500      610      700      900      950      970     1000      129      960     1100   
                                          VAR    BASINP    GEOM    SYMINP    ZMAT    AOBASIS   BASIS     P2S    ABASIS      S 
                                         1400     1410     1200     1210     1080     1600     1650     1700   
                                           T        V       H0       H01     AOSYM     SMH    MOLCAS    OPER   

              2       3        0.77       700     1000     2100   
                                         GEOM     BASIS     RHF  

 PROGRAMS   *        TOTAL  UCCSD(T)       RHF       INT
 CPU TIMES  *       328.56    325.72      1.55      1.23
 REAL TIME  *       343.33 SEC
 DISK USED  *         1.29 GB      
 SF USED    *       553.73 MB      
 GA USED    *         0.00 MB       (max)       0.00 MB       (current)
 **********************************************************************************************************************************

        UCCSD(T)        RHF-SCF 
   -268.13349617   -267.26533675
 **********************************************************************************************************************************
 Variable memory released
