
 Primary working directories    : /tmp/320938.573.gen4.q
 Secondary working directories  : /tmp/320938.573.gen4.q
 Wavefunction directory         : /home/vulcan/mel64643/wfu/
 Main file repository           : /tmp/320938.573.gen4.q/

 ARCHNAME  : Linux/x86_64
 FC        : /opt/intel/compilers_and_libraries_2016.1.150/linux/bin/intel64/ifort
 FCVERSION : 16.0.1
 BLASLIB   : -mkl
 id        : ccgc

 Nodes     nprocs
 n065         3
 Number of processes for MPI-2 version of Molpro:   nprocs(total)=    4   nprocs(compute)=    3   nprocs(helper)=    1
 ga_uses_ma=false, calling ma_init with nominal heap.
 GA-space will be limited to   8.0 MW (determined by -G option)

 Using customized tuning parameters: mindgm=10; mindgv=16; mindgc=4; mindgr=1; noblas=0; mincuda=1000; minvec=7
 default implementation of scratch files=sf  

 ***,Frequencies for min3
 memory,1000,m
 gthresh,energy=1.0d-10,orbital=1.0d-10,oneint=1.0d-16,twoint=1.0d-16,optgrad=1.0d-6,compress=1.0d-13
 geomtyp=xyz
 
  geometry = {
  12
  arbitrary comment
     C    1.776964391707    0.711398808326   -0.047331391796
     C    0.491811976407   -0.059992870174   -0.196493901896
     C    0.450332819107   -1.536901667789    0.101412520202
     O   -0.560826294830    0.727456505405    0.254456675748
     O   -1.837817290588    0.092078185195   -0.120525062171
     H    2.585575648142    0.212008432403   -0.611492781434
     H    1.660981180638    1.743647387020   -0.426618711696
     H    2.095474886297    0.774751516629    1.017587726033
     H   -0.505165269302   -1.981515864189   -0.220031556490
     H    1.281582778345   -2.046358569617   -0.417126072534
     H    0.561568320122   -1.718110026002    1.194775282044
     H   -1.987770456278    0.552412815581   -0.967001288787
  }
 
 basis=cc-pvdz
 {rhf;maxit,200}
 {uccsd(t);maxit,200}

 Variables initialized (661), CPU time= 0.00 sec
 Commands  initialized (458), CPU time= 0.00 sec, 486 directives.
 Default parameters read. Elapsed time= 0.06 sec

 Checking input...
 Passed
1


                                         ***  PROGRAM SYSTEM MOLPRO  ***
                         Copyright, University College Cardiff Consultants Limited, 2008

                                    Version 2010.1 linked May 16 2016 07:17:05


 **********************************************************************************************************************************
 LABEL *   Frequencies for min3                                                          
 Linux-4.4.3/n065(x86_64) 64 bit mpp version                                             DATE: 07-Mar-20          TIME: 04:20:50  
 **********************************************************************************************************************************

 SHA1:             9e8077add272b0f3cad6f7df79ec5211205f459d
 **********************************************************************************************************************************

 THRESHOLDS:

 ZERO    =  1.00D-12  ONEINT  =  1.00D-16  TWOINT  =  1.00D-16  PREFAC  =  1.00D-14  LOCALI  =  1.00D-09  EORDER  =  1.00D-04
 ENERGY  =  1.00D-10  ETEST   =  0.00D+00  EDENS   =  0.00D+00  THRDEDEF=  1.00D-06  GRADIENT=  1.00D-02  STEP    =  1.00D-03
 ORBITAL =  1.00D-10  CIVEC   =  1.00D-05  COEFF   =  1.00D-04  PRINTCI =  5.00D-02  PUNCHCI =  9.90D+01  OPTGRAD =  1.00D-06
 OPTENERG=  1.00D-06  OPTSTEP =  3.00D-04  THRGRAD =  1.00D-10  COMPRESS=  1.00D-13  VARMIN  =  1.00D-07  VARMAX  =  1.00D-03
 THRDOUB =  0.00D+00  THRDIV  =  1.00D-05  THRRED  =  1.00D-07  THRPSP  =  1.00D+00  THRDC   =  1.00D-10  THRCS   =  1.00D-10
 THRNRM  =  1.00D-08  THREQ   =  0.00D+00  THRDE   =  1.00D+00  THRREF  =  1.00D-05  SPARFAC =  1.00D+00  THRDLP  =  1.00D-07
 THRDIA  =  1.00D-10  THRDLS  =  1.00D-07  THRGPS  =  0.00D+00  THRKEX  =  0.00D+00  THRDIS  =  2.00D-01  THRVAR  =  1.00D-10
 THRLOC  =  1.00D-06  THRGAP  =  1.00D-06  THRLOCT = -1.00D+00  THRGAPT = -1.00D+00  THRORB  =  1.00D-06  THRMLTP =  0.00D+00
 THRCPQCI=  1.00D-10  KEXTA   =  0.00D+00  THRCOARS=  0.00D+00  SYMTOL  =  1.00D-06  GRADTOL =  1.00D-06  THROVL  =  1.00D-08
 THRORTH =  1.00D-08  GRID    =  1.00D-06  GRIDMAX =  1.00D-03  DTMAX   =  0.00D+00

 SETTING GEOMTYP        =    XYZ

 Variable memory set to 1000000000 words,  buffer space   230000 words

 SETTING BASIS          =    CC-PVDZ


 Recomputing integrals since basis changed


 Using spherical harmonics

 Library entry C      S cc-pVDZ              selected for orbital group  1
 Library entry C      P cc-pVDZ              selected for orbital group  1
 Library entry C      D cc-pVDZ              selected for orbital group  1
 Library entry O      S cc-pVDZ              selected for orbital group  2
 Library entry O      P cc-pVDZ              selected for orbital group  2
 Library entry O      D cc-pVDZ              selected for orbital group  2
 Library entry H      S cc-pVDZ              selected for orbital group  3
 Library entry H      P cc-pVDZ              selected for orbital group  3

1PROGRAM * SEWARD (Integral evaluation for generally contracted gaussian basis sets)     Author: Roland Lindh, 1990

 Geometry written to block  1 of record 700


 Point group  C1  



 ATOMIC COORDINATES

 NR  ATOM    CHARGE       X              Y              Z

   1  C       6.00    3.357976046    1.344348918   -0.089443368
   2  C       6.00    0.929389944   -0.113370094   -0.371319661
   3  C       6.00    0.851005696   -2.904323243    0.191641889
   4  O       8.00   -1.059808105    1.374693568    0.480853429
   5  O       8.00   -3.472971359    0.174002553   -0.227759359
   6  H       1.00    4.886029867    0.400637875   -1.155553888
   7  H       1.00    3.138799541    3.295016031   -0.806192528
   8  H       1.00    3.959873650    1.464068186    1.922962117
   9  H       1.00   -0.954624010   -3.744522308   -0.415799382
  10  H       1.00    2.421840466   -3.867057263   -0.788254039
  11  H       1.00    1.061210329   -3.246757413    2.257798072
  12  H       1.00   -3.756341774    1.043908933   -1.827367605

 Bond lengths in Bohr (Angstrom)

 1-2  2.846476668  1-6  2.088571439  1-7  2.089705693  1-8  2.103898587  2-3  2.848243191
     ( 1.506290578)     ( 1.105224405)     ( 1.105824626)     ( 1.113335182)     ( 1.507225382)

  2- 4  2.626298025   3- 9  2.082118633   3-10  2.086761773   3-11  2.104863064   4- 5  2.786960332
       ( 1.389777059)       ( 1.101809727)       ( 1.104266771)       ( 1.113845561)       ( 1.474795890)

  5-12  1.842764890
       ( 0.975149181)

 Bond angles

  1-2-3  120.37915346   1-2-4  108.90036039   2-1-6  110.01538291   2-1-7  110.76825428

  2- 1- 8  111.58909053   2- 3- 9  111.19950129   2- 3-10  109.78820478   2- 3-11  110.52915862

  2- 4- 5  109.22148231   3- 2- 4  118.04901335   4- 5-12   98.65486977   6- 1- 7  108.87097881

  6- 1- 8  107.73737673   7- 1- 8  107.75594728   9- 3-10  109.24665253   9- 3-11  107.89854496

 10- 3-11  108.10204941

 NUCLEAR CHARGE:                   41
 NUMBER OF PRIMITIVE AOS:         184
 NUMBER OF SYMMETRY AOS:          179
 NUMBER OF CONTRACTIONS:          105   ( 105A   )
 NUMBER OF CORE ORBITALS:           5   (   5A   )
 NUMBER OF VALENCE ORBITALS:       27   (  27A   )


 NUCLEAR REPULSION ENERGY  183.20994871


 Eigenvalues of metric

         1 0.346E-02 0.435E-02 0.105E-01 0.141E-01 0.182E-01 0.214E-01 0.331E-01 0.346E-01


 Contracted 2-electron integrals neglected if value below      1.0D-16
 AO integral compression algorithm  1   Integral accuracy      1.0D-16

     127.664 MB (compressed) written to integral file ( 93.2%)

     Node minimum: 41.157 MB, node maximum: 44.564 MB


 NUMBER OF SORTED TWO-ELECTRON INTEGRALS:    5164320.     BUFFER LENGTH:  32768
 NUMBER OF SEGMENTS:   1  SEGMENT LENGTH:    5164320      RECORD LENGTH: 524288

 Memory used in sort:       5.72 MW

 SORT1 READ    17075251. AND WROTE     5135906. INTEGRALS IN     15 RECORDS. CPU TIME:     0.22 SEC, REAL TIME:     0.26 SEC
 SORT2 READ    15396642. AND WROTE    15487395. INTEGRALS IN    480 RECORDS. CPU TIME:     0.07 SEC, REAL TIME:     0.10 SEC

 Node minimum:     5160610.  Node maximum:     5164320. integrals

 OPERATOR DM      FOR CENTER  0  COORDINATES:    0.000000    0.000000    0.000000


 **********************************************************************************************************************************
 DATASETS  * FILE   NREC   LENGTH (MB)   RECORD NAMES
              1      18        3.17       500      610      700      900      950      970     1000      129      960     1100   
                                          VAR    BASINP    GEOM    SYMINP    ZMAT    AOBASIS   BASIS     P2S    ABASIS      S 
                                         1400     1410     1200     1210     1080     1600     1650     1700   
                                           T        V       H0       H01     AOSYM     SMH    MOLCAS    OPER   

 PROGRAMS   *        TOTAL       INT
 CPU TIMES  *         0.94      0.90
 REAL TIME  *         1.36 SEC
 DISK USED  *       305.96 MB      
 GA USED    *         0.00 MB       (max)       0.00 MB       (current)
 **********************************************************************************************************************************

1PROGRAM * RHF-SCF (OPEN SHELL)       Authors: W. Meyer, H.-J. Werner


 NUMBER OF ELECTRONS:      21+   20-    SPACE SYMMETRY=1    SPIN SYMMETRY: Doublet 
 CONVERGENCE THRESHOLDS:    1.00E-10 (Density)    1.00E-11 (Energy)
 MAX. NUMBER OF ITERATIONS:      200
 INTERPOLATION TYPE:            DIIS
 INTERPOLATION STEPS:              2 (START)      1 (STEP)
 LEVEL SHIFTS:                 -0.30 (CLOSED)  0.00 (OPEN) 



 Orbital guess generated from atomic densities. Full valence occupancy:   32

 Molecular orbital dump at record        2100.2

 ITERATION    DDIFF          GRAD             ENERGY        2-EL.EN.            DIPOLE MOMENTS         DIIS
    1      0.000D+00      0.000D+00      -267.17819381    555.794260    0.56975    0.05286   -0.74915    0
    2      0.000D+00      0.617D-02      -267.24888067    555.717680    0.41389   -0.12969   -0.59867    1
    3      0.927D-02      0.214D-02      -267.26105688    555.635424    0.39372   -0.05811   -0.62601    2
    4      0.336D-02      0.912D-03      -267.26466423    555.787623    0.37916   -0.09859   -0.64234    3
    5      0.186D-02      0.364D-03      -267.26523324    555.759061    0.38175   -0.09221   -0.63529    4
    6      0.792D-03      0.110D-03      -267.26530969    555.745264    0.38003   -0.09205   -0.63802    5
    7      0.277D-03      0.512D-04      -267.26532987    555.742252    0.37934   -0.09182   -0.63751    6
    8      0.144D-03      0.273D-04      -267.26533595    555.740300    0.37962   -0.09194   -0.63772    7
    9      0.926D-04      0.115D-04      -267.26533688    555.740612    0.37981   -0.09189   -0.63747    8
   10      0.367D-04      0.502D-05      -267.26533703    555.741228    0.38007   -0.09190   -0.63754    9
   11      0.147D-04      0.197D-05      -267.26533706    555.741070    0.38012   -0.09190   -0.63754    9
   12      0.651D-05      0.671D-06      -267.26533706    555.741205    0.38014   -0.09190   -0.63754    9
   13      0.227D-05      0.227D-06      -267.26533706    555.741120    0.38014   -0.09190   -0.63754    9
   14      0.633D-06      0.761D-07      -267.26533706    555.741129    0.38014   -0.09190   -0.63754    9
   15      0.193D-06      0.303D-07      -267.26533706    555.741125    0.38014   -0.09190   -0.63754    9
   16      0.831D-07      0.147D-07      -267.26533706    555.741126    0.38014   -0.09190   -0.63754    9
   17      0.380D-07      0.762D-08      -267.26533706    555.741126    0.38014   -0.09190   -0.63754    9
   18      0.227D-07      0.345D-08      -267.26533706    555.741126    0.38014   -0.09190   -0.63754    9
   19      0.115D-07      0.134D-08      -267.26533706    555.741126    0.38014   -0.09190   -0.63754    9
   20      0.445D-08      0.572D-09      -267.26533706    555.741127    0.38014   -0.09190   -0.63754    9
   21      0.167D-08      0.290D-09      -267.26533706    555.741127    0.38014   -0.09190   -0.63754    9
   22      0.764D-09      0.163D-09      -267.26533706    555.741127    0.38014   -0.09190   -0.63754    9
   23      0.452D-09      0.804D-10      -267.26533706    555.741127    0.38014   -0.09190   -0.63754    9
   24      0.266D-09      0.320D-10      -267.26533706    555.741127    0.38014   -0.09190   -0.63754    9
   25      0.940D-10      0.130D-10      -267.26533706    555.741127    0.38014   -0.09190   -0.63754    0

 Final alpha occupancy:  21
 Final beta  occupancy:  20

 !RHF STATE 1.1 Energy               -267.265337062282
 Nuclear energy                       183.20994871
 One-electron energy                 -728.34584903
 Two-electron energy                  277.87056326
 Virial quotient                       -1.00156008
 !RHF STATE 1.1 Dipole moment           0.38014389    -0.09190222    -0.63753653
 Dipole moment /Debye                   0.96616611    -0.23357685    -1.62035009

 Orbital energies:

         1.1          2.1          3.1          4.1          5.1          6.1          7.1          8.1          9.1         10.1
    -20.630449   -20.628897   -11.279266   -11.237931   -11.232076    -1.470042    -1.240523    -1.023165    -0.945348    -0.768333

        11.1         12.1         13.1         14.1         15.1         16.1         17.1         18.1         19.1         20.1
     -0.704470    -0.642973    -0.626676    -0.588724    -0.545153    -0.543462    -0.539068    -0.516962    -0.492952    -0.469748

        21.1         22.1         23.1
     -0.352285     0.181244     0.183526


 **********************************************************************************************************************************
 DATASETS  * FILE   NREC   LENGTH (MB)   RECORD NAMES
              1      18        3.17       500      610      700      900      950      970     1000      129      960     1100   
                                          VAR    BASINP    GEOM    SYMINP    ZMAT    AOBASIS   BASIS     P2S    ABASIS      S 
                                         1400     1410     1200     1210     1080     1600     1650     1700   
                                           T        V       H0       H01     AOSYM     SMH    MOLCAS    OPER   

              2       3        0.77       700     1000     2100   
                                         GEOM     BASIS     RHF  

 PROGRAMS   *        TOTAL       RHF       INT
 CPU TIMES  *         2.03      1.09      0.90
 REAL TIME  *         2.60 SEC
 DISK USED  *       322.53 MB      
 SF USED    *         0.04 MB      
 GA USED    *         0.00 MB       (max)       0.00 MB       (current)
 **********************************************************************************************************************************


1PROGRAM * CCSD (Unrestricted open-shell coupled cluster)     Authors: C. Hampel, H.-J. Werner, 1991, M. Deegan, P.J. Knowles, 1992


 Convergence thresholds:  THRVAR = 1.00D-08  THRDEN = 1.00D-10

 CCSD(T)     terms to be evaluated (factor= 1.000)


 Number of core orbitals:           5 (   5 )
 Number of closed-shell orbitals:  15 (  15 )
 Number of active  orbitals:        1 (   1 )
 Number of external orbitals:      84 (  84 )

 Memory could be reduced to 24.91 Mwords without degradation in triples

 Number of N-1 electron functions:              31
 Number of N-2 electron functions:             465
 Number of singly external CSFs:              2635
 Number of doubly external CSFs:           2537250
 Total number of CSFs:                     2539885

 Molecular orbitals read from record     2100.2  Type=RHF/CANONICAL (state 1.1)

 Integral transformation finished. Total CPU:   1.22 sec, npass=  1  Memory used:  12.63 MW

 Starting RMP2 calculation

 ITER.      SQ.NORM     CORR.ENERGY   TOTAL ENERGY   ENERGY CHANGE        DEN1      VAR(S)    VAR(P)  DIIS     TIME
   1      1.24307126    -0.78642848  -268.05176554    -0.78642848    -0.00305056  0.20D-04  0.11D-02  1  1     1.65
   2      1.24571355    -0.78971832  -268.05505538    -0.00328984    -0.00000474  0.54D-06  0.19D-05  2  2     2.02
   3      1.24577910    -0.78976039  -268.05509745    -0.00004207    -0.00000003  0.16D-07  0.68D-08  3  3     2.42
   4      1.24578006    -0.78976039  -268.05509745    -0.00000000    -0.00000000  0.27D-09  0.38D-10  4  4     2.85
   5      1.24578014    -0.78976042  -268.05509748    -0.00000003    -0.00000000  0.25D-11  0.65D-12  5  5     3.31
   6      1.24578015    -0.78976043  -268.05509749    -0.00000001    -0.00000000  0.28D-13  0.87D-14  6  6     3.80
   7      1.24578015    -0.78976043  -268.05509749     0.00000000    -0.00000000  0.47D-15  0.12D-15  6  1     4.29
   8      1.24578015    -0.78976043  -268.05509749     0.00000000    -0.00000000  0.60D-17  0.13D-17  6  2     4.77

 Norm of t1 vector:      0.03892607      S-energy:    -0.00227099      T1 diagnostic:  0.00055014
 Norm of t2 vector:      0.49423164      P-energy:    -0.78748944
                                         Alpha-Beta:  -0.59345871
                                         Alpha-Alpha: -0.10094622
                                         Beta-Beta:   -0.09308451

 Spin contamination <S**2-Sz**2-Sz>     0.00104002
  Reference energy                   -267.265337062282
  RHF-RMP2 correlation energy          -0.789760427003
 !RHF-RMP2 energy                    -268.055097489284

 Starting UCCSD calculation

 ITER.      SQ.NORM     CORR.ENERGY   TOTAL ENERGY   ENERGY CHANGE        DEN1      VAR(S)    VAR(P)  DIIS     TIME
   1      1.26283786    -0.80908621  -268.07442327    -0.80908621    -0.02516273  0.38D-02  0.59D-02  1  1    12.37
   2      1.29161995    -0.83650122  -268.10183828    -0.02741501    -0.00201226  0.22D-03  0.66D-03  2  2    19.96
   3      1.30156516    -0.84100136  -268.10633842    -0.00450015    -0.00032472  0.19D-03  0.56D-04  3  3    27.55
   4      1.30647993    -0.84247916  -268.10781622    -0.00147780    -0.00007208  0.43D-04  0.14D-04  4  4    35.11
   5      1.30920860    -0.84286715  -268.10820421    -0.00038799    -0.00002367  0.19D-04  0.32D-05  5  5    40.58
   6      1.31114678    -0.84307156  -268.10840862    -0.00020441    -0.00000646  0.42D-05  0.12D-05  6  6    48.21
   7      1.31209612    -0.84313033  -268.10846739    -0.00005877    -0.00000208  0.14D-05  0.37D-06  6  2    55.90
   8      1.31253805    -0.84317305  -268.10851011    -0.00004272    -0.00000065  0.45D-06  0.11D-06  6  1    63.61
   9      1.31272337    -0.84317764  -268.10851470    -0.00000459    -0.00000022  0.15D-06  0.35D-07  6  4    71.41
  10      1.31278665    -0.84318058  -268.10851764    -0.00000294    -0.00000005  0.35D-07  0.95D-08  6  3    79.06
  11      1.31281619    -0.84317931  -268.10851637     0.00000126    -0.00000002  0.13D-07  0.28D-08  6  5    86.72
  12      1.31282658    -0.84317905  -268.10851611     0.00000026    -0.00000000  0.26D-08  0.96D-09  6  6    94.41
  13      1.31282543    -0.84317813  -268.10851520     0.00000092    -0.00000000  0.96D-09  0.29D-09  6  2   102.11
  14      1.31282022    -0.84317729  -268.10851435     0.00000084    -0.00000000  0.21D-09  0.68D-10  6  1   109.83
  15      1.31281615    -0.84317670  -268.10851376     0.00000059    -0.00000000  0.78D-10  0.19D-10  6  4   117.50
  16      1.31281296    -0.84317632  -268.10851338     0.00000038    -0.00000000  0.28D-10  0.63D-11  6  3   125.19
  17      1.31281076    -0.84317608  -268.10851314     0.00000024    -0.00000000  0.10D-10  0.24D-11  6  5   132.90
  18      1.31280986    -0.84317602  -268.10851308     0.00000006    -0.00000000  0.41D-11  0.87D-12  6  6   140.60
  19      1.31280925    -0.84317599  -268.10851305     0.00000003    -0.00000000  0.16D-11  0.37D-12  6  2   148.29
  20      1.31280893    -0.84317597  -268.10851304     0.00000001    -0.00000000  0.60D-12  0.13D-12  6  1   155.94
  21      1.31280876    -0.84317596  -268.10851303     0.00000001    -0.00000000  0.28D-12  0.58D-13  6  4   163.65
  22      1.31280864    -0.84317596  -268.10851302     0.00000001    -0.00000000  0.74D-13  0.21D-13  6  3   169.12
  23      1.31280858    -0.84317595  -268.10851301     0.00000000    -0.00000000  0.21D-13  0.63D-14  6  5   175.22
  24      1.31280858    -0.84317595  -268.10851302    -0.00000000    -0.00000000  0.68D-14  0.23D-14  6  6   183.07
  25      1.31280858    -0.84317595  -268.10851302    -0.00000000    -0.00000000  0.21D-14  0.53D-15  6  2   190.93
  26      1.31280859    -0.84317596  -268.10851302    -0.00000000    -0.00000000  0.77D-15  0.15D-15  6  1   198.56
  27      1.31280860    -0.84317596  -268.10851302    -0.00000000    -0.00000000  0.20D-15  0.63D-16  6  3   206.39
  28      1.31280860    -0.84317596  -268.10851302    -0.00000000    -0.00000000  0.30D-16  0.11D-16  6  4   214.09
  29      1.31280861    -0.84317596  -268.10851302    -0.00000000    -0.00000000  0.71D-17  0.29D-17  6  5   221.76
  30      1.31280861    -0.84317596  -268.10851302    -0.00000000    -0.00000000  0.15D-17  0.54D-18  6  6   229.42
  31      1.31280861    -0.84317596  -268.10851302    -0.00000000    -0.00000000  0.35D-18  0.10D-18  6  2   237.08

 Norm of t1 vector:      0.13871521      S-energy:    -0.00282035      T1 diagnostic:  0.01616949
                                                                       D1 diagnostic:  0.06281382
 Norm of t2 vector:      0.54181795      P-energy:    -0.84035560
                                         Alpha-Beta:  -0.66491035
                                         Alpha-Alpha: -0.09147451
                                         Beta-Beta:   -0.08397075

 Spin contamination <S**2-Sz**2-Sz>     0.00217065

 Memory could be reduced to 28.85 Mwords without degradation in triples
 

 RESULTS
 =======

  Reference energy                   -267.265337062282
  UCCSD singles energy                 -0.002820354855
  UCCSD pair energy                    -0.840355601483
  UCCSD correlation energy             -0.843175956338
  Triples (T) contribution             -0.024982216789
  Total correlation energy             -0.868158173127
 
  RHF-UCCSD energy                   -268.108513018620
  RHF-UCCSD[T] energy                -268.134831700371
  RHF-UCCSD-T energy                 -268.133073432393
 !RHF-UCCSD(T) energy                -268.133495235409

 Program statistics:

 Available memory in ccsd:               999997692
 Min. memory needed in ccsd:               7337057
 Max. memory used in ccsd:                10523002
 Max. memory used in cckext:              10867977 (31 integral passes)
 Max. memory used in cckint:              12633073 ( 1 integral passes)



 **********************************************************************************************************************************
 DATASETS  * FILE   NREC   LENGTH (MB)   RECORD NAMES
              1      18        3.17       500      610      700      900      950      970     1000      129      960     1100   
                                          VAR    BASINP    GEOM    SYMINP    ZMAT    AOBASIS   BASIS     P2S    ABASIS      S 
                                         1400     1410     1200     1210     1080     1600     1650     1700   
                                           T        V       H0       H01     AOSYM     SMH    MOLCAS    OPER   

              2       3        0.77       700     1000     2100   
                                         GEOM     BASIS     RHF  

 PROGRAMS   *        TOTAL  UCCSD(T)       RHF       INT
 CPU TIMES  *       298.09    296.06      1.09      0.90
 REAL TIME  *       310.87 SEC
 DISK USED  *         1.29 GB      
 SF USED    *       553.73 MB      
 GA USED    *         0.00 MB       (max)       0.00 MB       (current)
 **********************************************************************************************************************************

        UCCSD(T)        RHF-SCF 
   -268.13349524   -267.26533706
 **********************************************************************************************************************************
 Variable memory released
