
 Primary working directories    : /tmp/320938.679.gen4.q
 Secondary working directories  : /tmp/320938.679.gen4.q
 Wavefunction directory         : /home/vulcan/mel64643/wfu/
 Main file repository           : /tmp/320938.679.gen4.q/

 ARCHNAME  : Linux/x86_64
 FC        : /opt/intel/compilers_and_libraries_2016.1.150/linux/bin/intel64/ifort
 FCVERSION : 16.0.1
 BLASLIB   : -mkl
 id        : ccgc

 Nodes     nprocs
 n034         3
 Number of processes for MPI-2 version of Molpro:   nprocs(total)=    4   nprocs(compute)=    3   nprocs(helper)=    1
 ga_uses_ma=false, calling ma_init with nominal heap.
 GA-space will be limited to   8.0 MW (determined by -G option)

 Using customized tuning parameters: mindgm=10; mindgv=16; mindgc=4; mindgr=1; noblas=0; mincuda=1000; minvec=7
 default implementation of scratch files=sf  

 ***,Frequencies for min3
 memory,1000,m
 gthresh,energy=1.0d-10,orbital=1.0d-10,oneint=1.0d-16,twoint=1.0d-16,optgrad=1.0d-6,compress=1.0d-13
 geomtyp=xyz
 
  geometry = {
  12
  arbitrary comment
     C    1.776964391707    0.711398808326   -0.047331391796
     C    0.491127713802   -0.060650041448   -0.196458212322
     C    0.450581263966   -1.536078458288    0.101370850734
     O   -0.560671192546    0.727376875144    0.254492706540
     O   -1.837688547282    0.092349081364   -0.120576359929
     H    2.585535826334    0.211858264539   -0.611310731266
     H    1.660483298425    1.743210529687   -0.426353587289
     H    2.095187996726    0.774319665218    1.017792700194
     H   -0.504581900583   -1.982604675993   -0.220191396248
     H    1.282194972240   -2.046907136470   -0.417201189783
     H    0.562003039178   -1.719006172072    1.194691614064
     H   -1.987891772617    0.550952699417   -0.967021313129
  }
 
 basis=cc-pvdz
 {rhf;maxit,200}
 {uccsd(t);maxit,200}

 Variables initialized (661), CPU time= 0.00 sec
 Commands  initialized (458), CPU time= 0.00 sec, 486 directives.
 Default parameters read. Elapsed time= 0.05 sec

 Checking input...
 Passed
1


                                         ***  PROGRAM SYSTEM MOLPRO  ***
                         Copyright, University College Cardiff Consultants Limited, 2008

                                    Version 2010.1 linked May 16 2016 07:17:05


 **********************************************************************************************************************************
 LABEL *   Frequencies for min3                                                          
 Linux-4.4.3/n034(x86_64) 64 bit mpp version                                             DATE: 07-Mar-20          TIME: 04:57:35  
 **********************************************************************************************************************************

 SHA1:             9e8077add272b0f3cad6f7df79ec5211205f459d
 **********************************************************************************************************************************

 THRESHOLDS:

 ZERO    =  1.00D-12  ONEINT  =  1.00D-16  TWOINT  =  1.00D-16  PREFAC  =  1.00D-14  LOCALI  =  1.00D-09  EORDER  =  1.00D-04
 ENERGY  =  1.00D-10  ETEST   =  0.00D+00  EDENS   =  0.00D+00  THRDEDEF=  1.00D-06  GRADIENT=  1.00D-02  STEP    =  1.00D-03
 ORBITAL =  1.00D-10  CIVEC   =  1.00D-05  COEFF   =  1.00D-04  PRINTCI =  5.00D-02  PUNCHCI =  9.90D+01  OPTGRAD =  1.00D-06
 OPTENERG=  1.00D-06  OPTSTEP =  3.00D-04  THRGRAD =  1.00D-10  COMPRESS=  1.00D-13  VARMIN  =  1.00D-07  VARMAX  =  1.00D-03
 THRDOUB =  0.00D+00  THRDIV  =  1.00D-05  THRRED  =  1.00D-07  THRPSP  =  1.00D+00  THRDC   =  1.00D-10  THRCS   =  1.00D-10
 THRNRM  =  1.00D-08  THREQ   =  0.00D+00  THRDE   =  1.00D+00  THRREF  =  1.00D-05  SPARFAC =  1.00D+00  THRDLP  =  1.00D-07
 THRDIA  =  1.00D-10  THRDLS  =  1.00D-07  THRGPS  =  0.00D+00  THRKEX  =  0.00D+00  THRDIS  =  2.00D-01  THRVAR  =  1.00D-10
 THRLOC  =  1.00D-06  THRGAP  =  1.00D-06  THRLOCT = -1.00D+00  THRGAPT = -1.00D+00  THRORB  =  1.00D-06  THRMLTP =  0.00D+00
 THRCPQCI=  1.00D-10  KEXTA   =  0.00D+00  THRCOARS=  0.00D+00  SYMTOL  =  1.00D-06  GRADTOL =  1.00D-06  THROVL  =  1.00D-08
 THRORTH =  1.00D-08  GRID    =  1.00D-06  GRIDMAX =  1.00D-03  DTMAX   =  0.00D+00

 SETTING GEOMTYP        =    XYZ

 Variable memory set to 1000000000 words,  buffer space   230000 words

 SETTING BASIS          =    CC-PVDZ


 Recomputing integrals since basis changed


 Using spherical harmonics

 Library entry C      S cc-pVDZ              selected for orbital group  1
 Library entry C      P cc-pVDZ              selected for orbital group  1
 Library entry C      D cc-pVDZ              selected for orbital group  1
 Library entry O      S cc-pVDZ              selected for orbital group  2
 Library entry O      P cc-pVDZ              selected for orbital group  2
 Library entry O      D cc-pVDZ              selected for orbital group  2
 Library entry H      S cc-pVDZ              selected for orbital group  3
 Library entry H      P cc-pVDZ              selected for orbital group  3

1PROGRAM * SEWARD (Integral evaluation for generally contracted gaussian basis sets)     Author: Roland Lindh, 1990

 Geometry written to block  1 of record 700


 Point group  C1  



 ATOMIC COORDINATES

 NR  ATOM    CHARGE       X              Y              Z

   1  C       6.00    3.357976046    1.344348918   -0.089443368
   2  C       6.00    0.928096875   -0.114611968   -0.371252218
   3  C       6.00    0.851475189   -2.902767603    0.191563146
   4  O       8.00   -1.059515004    1.374543088    0.480921518
   5  O       8.00   -3.472728069    0.174514472   -0.227856298
   6  H       1.00    4.885954615    0.400354099   -1.155209863
   7  H       1.00    3.137858680    3.294190491   -0.805691515
   8  H       1.00    3.959331508    1.463252105    1.923349462
   9  H       1.00   -0.953521603   -3.746579865   -0.416101435
  10  H       1.00    2.422997345   -3.868093904   -0.788395990
  11  H       1.00    1.062031829   -3.248450883    2.257639962
  12  H       1.00   -3.756571029    1.041149713   -1.827405445

 Bond lengths in Bohr (Angstrom)

 1-2  2.848209241  1-6  2.088469044  1-7  2.088862183  1-8  2.104067807  2-3  2.845425075
     ( 1.507207417)     ( 1.105170220)     ( 1.105378260)     ( 1.113424730)     ( 1.505734100)

  2- 4  2.625715871   3- 9  2.083095964   3-10  2.088505845   3-11  2.105351382   4- 5  2.786760121
       ( 1.389468996)       ( 1.102326908)       ( 1.105189694)       ( 1.114103968)       ( 1.474689943)

  5-12  1.841244400
       ( 0.974344573)

 Bond angles

  1-2-3  120.35330876   1-2-4  108.85500305   2-1-6  110.00756300   2-1-7  110.75183844

  2- 1- 8  111.55695102   2- 3- 9  111.25728337   2- 3-10  109.86680357   2- 3-11  110.62816095

  2- 4- 5  109.19257236   3- 2- 4  118.10890965   4- 5-12   98.72910082   6- 1- 7  108.90727672

  6- 1- 8  107.73485430   7- 1- 8  107.78113052   9- 3-10  109.14141678   9- 3-11  107.84352455

 10- 3-11  108.01808080

 NUCLEAR CHARGE:                   41
 NUMBER OF PRIMITIVE AOS:         184
 NUMBER OF SYMMETRY AOS:          179
 NUMBER OF CONTRACTIONS:          105   ( 105A   )
 NUMBER OF CORE ORBITALS:           5   (   5A   )
 NUMBER OF VALENCE ORBITALS:       27   (  27A   )


 NUCLEAR REPULSION ENERGY  183.22954309


 Eigenvalues of metric

         1 0.346E-02 0.435E-02 0.105E-01 0.141E-01 0.182E-01 0.214E-01 0.331E-01 0.345E-01


 Contracted 2-electron integrals neglected if value below      1.0D-16
 AO integral compression algorithm  1   Integral accuracy      1.0D-16

     127.402 MB (compressed) written to integral file ( 93.4%)

     Node minimum: 41.419 MB, node maximum: 44.040 MB


 NUMBER OF SORTED TWO-ELECTRON INTEGRALS:    5164320.     BUFFER LENGTH:  32768
 NUMBER OF SEGMENTS:   1  SEGMENT LENGTH:    5164320      RECORD LENGTH: 524288

 Memory used in sort:       5.72 MW

 SORT1 READ    17075251. AND WROTE     5135917. INTEGRALS IN     15 RECORDS. CPU TIME:     0.23 SEC, REAL TIME:     0.27 SEC
 SORT2 READ    15396657. AND WROTE    15487395. INTEGRALS IN    474 RECORDS. CPU TIME:     0.07 SEC, REAL TIME:     0.12 SEC

 Node minimum:     5160610.  Node maximum:     5164320. integrals

 OPERATOR DM      FOR CENTER  0  COORDINATES:    0.000000    0.000000    0.000000


 **********************************************************************************************************************************
 DATASETS  * FILE   NREC   LENGTH (MB)   RECORD NAMES
              1      18        3.17       500      610      700      900      950      970     1000      129      960     1100   
                                          VAR    BASINP    GEOM    SYMINP    ZMAT    AOBASIS   BASIS     P2S    ABASIS      S 
                                         1400     1410     1200     1210     1080     1600     1650     1700   
                                           T        V       H0       H01     AOSYM     SMH    MOLCAS    OPER   

 PROGRAMS   *        TOTAL       INT
 CPU TIMES  *         1.30      1.24
 REAL TIME  *         1.60 SEC
 DISK USED  *       305.44 MB      
 GA USED    *         0.00 MB       (max)       0.00 MB       (current)
 **********************************************************************************************************************************

1PROGRAM * RHF-SCF (OPEN SHELL)       Authors: W. Meyer, H.-J. Werner


 NUMBER OF ELECTRONS:      21+   20-    SPACE SYMMETRY=1    SPIN SYMMETRY: Doublet 
 CONVERGENCE THRESHOLDS:    1.00E-10 (Density)    1.00E-11 (Energy)
 MAX. NUMBER OF ITERATIONS:      200
 INTERPOLATION TYPE:            DIIS
 INTERPOLATION STEPS:              2 (START)      1 (STEP)
 LEVEL SHIFTS:                 -0.30 (CLOSED)  0.00 (OPEN) 



 Orbital guess generated from atomic densities. Full valence occupancy:   32

 Molecular orbital dump at record        2100.2

 ITERATION    DDIFF          GRAD             ENERGY        2-EL.EN.            DIPOLE MOMENTS         DIIS
    1      0.000D+00      0.000D+00      -267.17824116    555.831189    0.56913    0.04837   -0.74878    0
    2      0.000D+00      0.617D-02      -267.24892045    555.753089    0.41356   -0.13202   -0.59853    1
    3      0.927D-02      0.214D-02      -267.26109636    555.670789    0.39332   -0.05986   -0.62582    2
    4      0.336D-02      0.912D-03      -267.26470515    555.823008    0.37872   -0.09998   -0.64226    3
    5      0.186D-02      0.364D-03      -267.26527433    555.794391    0.38126   -0.09347   -0.63523    4
    6      0.792D-03      0.110D-03      -267.26535072    555.780601    0.37951   -0.09328   -0.63797    5
    7      0.277D-03      0.511D-04      -267.26537083    555.777600    0.37879   -0.09302   -0.63746    6
    8      0.144D-03      0.272D-04      -267.26537688    555.775643    0.37906   -0.09313   -0.63767    7
    9      0.923D-04      0.115D-04      -267.26537780    555.775963    0.37924   -0.09309   -0.63743    8
   10      0.366D-04      0.501D-05      -267.26537795    555.776572    0.37950   -0.09310   -0.63750    9
   11      0.146D-04      0.196D-05      -267.26537798    555.776414    0.37955   -0.09310   -0.63750    9
   12      0.650D-05      0.670D-06      -267.26537798    555.776549    0.37957   -0.09310   -0.63750    9
   13      0.227D-05      0.226D-06      -267.26537798    555.776464    0.37958   -0.09310   -0.63749    9
   14      0.632D-06      0.758D-07      -267.26537798    555.776473    0.37958   -0.09310   -0.63749    9
   15      0.193D-06      0.301D-07      -267.26537798    555.776469    0.37958   -0.09310   -0.63749    9
   16      0.827D-07      0.146D-07      -267.26537798    555.776471    0.37958   -0.09310   -0.63749    9
   17      0.376D-07      0.754D-08      -267.26537798    555.776471    0.37958   -0.09310   -0.63749    9
   18      0.224D-07      0.342D-08      -267.26537798    555.776471    0.37958   -0.09310   -0.63749    9
   19      0.114D-07      0.133D-08      -267.26537798    555.776471    0.37958   -0.09310   -0.63749    9
   20      0.444D-08      0.568D-09      -267.26537798    555.776471    0.37958   -0.09310   -0.63749    9
   21      0.166D-08      0.287D-09      -267.26537798    555.776471    0.37958   -0.09310   -0.63749    9
   22      0.755D-09      0.162D-09      -267.26537798    555.776471    0.37958   -0.09310   -0.63749    9
   23      0.447D-09      0.797D-10      -267.26537798    555.776471    0.37958   -0.09310   -0.63749    9
   24      0.264D-09      0.317D-10      -267.26537798    555.776471    0.37958   -0.09310   -0.63749    9
   25      0.933D-10      0.129D-10      -267.26537798    555.776471    0.37958   -0.09310   -0.63749    0

 Final alpha occupancy:  21
 Final beta  occupancy:  20

 !RHF STATE 1.1 Energy               -267.265377984653
 Nuclear energy                       183.22954309
 One-electron energy                 -728.38315653
 Two-electron energy                  277.88823545
 Virial quotient                       -1.00155478
 !RHF STATE 1.1 Dipole moment           0.37957917    -0.09310114    -0.63749449
 Dipole moment /Debye                   0.96473084    -0.23662400    -1.62024325

 Orbital energies:

         1.1          2.1          3.1          4.1          5.1          6.1          7.1          8.1          9.1         10.1
    -20.630545   -20.628800   -11.279269   -11.237908   -11.232166    -1.470247    -1.240760    -1.023224    -0.945314    -0.768484

        11.1         12.1         13.1         14.1         15.1         16.1         17.1         18.1         19.1         20.1
     -0.704649    -0.643024    -0.626798    -0.588717    -0.545155    -0.543489    -0.538985    -0.516848    -0.492983    -0.469817

        21.1         22.1         23.1
     -0.352326     0.181277     0.183557


 **********************************************************************************************************************************
 DATASETS  * FILE   NREC   LENGTH (MB)   RECORD NAMES
              1      18        3.17       500      610      700      900      950      970     1000      129      960     1100   
                                          VAR    BASINP    GEOM    SYMINP    ZMAT    AOBASIS   BASIS     P2S    ABASIS      S 
                                         1400     1410     1200     1210     1080     1600     1650     1700   
                                           T        V       H0       H01     AOSYM     SMH    MOLCAS    OPER   

              2       3        0.77       700     1000     2100   
                                         GEOM     BASIS     RHF  

 PROGRAMS   *        TOTAL       RHF       INT
 CPU TIMES  *         2.58      1.28      1.24
 REAL TIME  *         3.05 SEC
 DISK USED  *       322.00 MB      
 SF USED    *         0.04 MB      
 GA USED    *         0.00 MB       (max)       0.00 MB       (current)
 **********************************************************************************************************************************


1PROGRAM * CCSD (Unrestricted open-shell coupled cluster)     Authors: C. Hampel, H.-J. Werner, 1991, M. Deegan, P.J. Knowles, 1992


 Convergence thresholds:  THRVAR = 1.00D-08  THRDEN = 1.00D-10

 CCSD(T)     terms to be evaluated (factor= 1.000)


 Number of core orbitals:           5 (   5 )
 Number of closed-shell orbitals:  15 (  15 )
 Number of active  orbitals:        1 (   1 )
 Number of external orbitals:      84 (  84 )

 Memory could be reduced to 24.91 Mwords without degradation in triples

 Number of N-1 electron functions:              31
 Number of N-2 electron functions:             465
 Number of singly external CSFs:              2635
 Number of doubly external CSFs:           2537250
 Total number of CSFs:                     2539885

 Molecular orbitals read from record     2100.2  Type=RHF/CANONICAL (state 1.1)

 Integral transformation finished. Total CPU:   1.11 sec, npass=  1  Memory used:  12.63 MW

 Starting RMP2 calculation

 ITER.      SQ.NORM     CORR.ENERGY   TOTAL ENERGY   ENERGY CHANGE        DEN1      VAR(S)    VAR(P)  DIIS     TIME
   1      1.24303785    -0.78638909  -268.05176708    -0.78638909    -0.00304999  0.20D-04  0.11D-02  1  1     1.48
   2      1.24567951    -0.78967831  -268.05505629    -0.00328921    -0.00000474  0.54D-06  0.19D-05  2  2     1.82
   3      1.24574507    -0.78972038  -268.05509836    -0.00004207    -0.00000003  0.16D-07  0.68D-08  3  3     2.18
   4      1.24574602    -0.78972038  -268.05509836    -0.00000000    -0.00000000  0.27D-09  0.38D-10  4  4     2.58
   5      1.24574610    -0.78972041  -268.05509840    -0.00000003    -0.00000000  0.25D-11  0.65D-12  5  5     3.01
   6      1.24574612    -0.78972042  -268.05509840    -0.00000001    -0.00000000  0.28D-13  0.87D-14  6  6     3.47
   7      1.24574612    -0.78972042  -268.05509840     0.00000000    -0.00000000  0.47D-15  0.12D-15  6  1     3.92
   8      1.24574612    -0.78972042  -268.05509840     0.00000000    -0.00000000  0.60D-17  0.13D-17  6  2     4.38

 Norm of t1 vector:      0.03892793      S-energy:    -0.00227110      T1 diagnostic:  0.00055028
 Norm of t2 vector:      0.49419706      P-energy:    -0.78744932
                                         Alpha-Beta:  -0.59342535
                                         Alpha-Alpha: -0.10094274
                                         Beta-Beta:   -0.09308123

 Spin contamination <S**2-Sz**2-Sz>     0.00104016
  Reference energy                   -267.265377984654
  RHF-RMP2 correlation energy          -0.789720416699
 !RHF-RMP2 energy                    -268.055098401353

 Starting UCCSD calculation

 ITER.      SQ.NORM     CORR.ENERGY   TOTAL ENERGY   ENERGY CHANGE        DEN1      VAR(S)    VAR(P)  DIIS     TIME
   1      1.26281161    -0.80905844  -268.07443642    -0.80905844    -0.02515715  0.38D-02  0.59D-02  1  1    11.10
   2      1.29158832    -0.83646894  -268.10184692    -0.02741050    -0.00201126  0.22D-03  0.66D-03  2  2    17.80
   3      1.30153063    -0.84096773  -268.10634572    -0.00449880    -0.00032461  0.19D-03  0.56D-04  3  3    24.54
   4      1.30644398    -0.84244501  -268.10782300    -0.00147728    -0.00007206  0.43D-04  0.14D-04  4  4    31.32
   5      1.30917303    -0.84283307  -268.10821106    -0.00038806    -0.00002365  0.19D-04  0.32D-05  5  5    38.04
   6      1.31111086    -0.84303746  -268.10841544    -0.00020438    -0.00000645  0.42D-05  0.12D-05  6  6    44.89
   7      1.31205898    -0.84309615  -268.10847414    -0.00005870    -0.00000208  0.14D-05  0.37D-06  6  2    51.72
   8      1.31249999    -0.84313880  -268.10851679    -0.00004265    -0.00000065  0.45D-06  0.11D-06  6  1    58.55
   9      1.31268483    -0.84314337  -268.10852136    -0.00000457    -0.00000022  0.15D-06  0.35D-07  6  4    65.41
  10      1.31274786    -0.84314629  -268.10852428    -0.00000292    -0.00000005  0.35D-07  0.95D-08  6  3    72.23
  11      1.31277730    -0.84314504  -268.10852302     0.00000126    -0.00000002  0.13D-07  0.28D-08  6  5    79.07
  12      1.31278765    -0.84314478  -268.10852276     0.00000026    -0.00000000  0.26D-08  0.95D-09  6  6    85.89
  13      1.31278651    -0.84314386  -268.10852185     0.00000091    -0.00000000  0.96D-09  0.28D-09  6  2    92.73
  14      1.31278131    -0.84314302  -268.10852101     0.00000084    -0.00000000  0.21D-09  0.67D-10  6  1    99.57
  15      1.31277724    -0.84314244  -268.10852042     0.00000059    -0.00000000  0.78D-10  0.19D-10  6  4   106.41
  16      1.31277406    -0.84314205  -268.10852004     0.00000038    -0.00000000  0.28D-10  0.63D-11  6  3   116.14
  17      1.31277187    -0.84314181  -268.10851980     0.00000024    -0.00000000  0.10D-10  0.24D-11  6  5   125.87
  18      1.31277096    -0.84314175  -268.10851974     0.00000006    -0.00000000  0.41D-11  0.87D-12  6  6   135.62
  19      1.31277036    -0.84314172  -268.10851970     0.00000003    -0.00000000  0.16D-11  0.37D-12  6  2   145.36
  20      1.31277004    -0.84314171  -268.10851969     0.00000001    -0.00000000  0.60D-12  0.13D-12  6  1   155.12
  21      1.31276987    -0.84314170  -268.10851968     0.00000001    -0.00000000  0.28D-12  0.58D-13  6  4   164.95
  22      1.31276975    -0.84314169  -268.10851967     0.00000001    -0.00000000  0.73D-13  0.21D-13  6  3   173.63
  23      1.31276969    -0.84314169  -268.10851967     0.00000000    -0.00000000  0.21D-13  0.62D-14  6  5   181.85
  24      1.31276969    -0.84314169  -268.10851967    -0.00000000    -0.00000000  0.67D-14  0.22D-14  6  6   190.07
  25      1.31276969    -0.84314169  -268.10851967    -0.00000000    -0.00000000  0.21D-14  0.52D-15  6  2   198.05
  26      1.31276970    -0.84314169  -268.10851967    -0.00000000    -0.00000000  0.77D-15  0.15D-15  6  1   206.32
  27      1.31276971    -0.84314169  -268.10851967    -0.00000000    -0.00000000  0.20D-15  0.62D-16  6  3   214.55
  28      1.31276971    -0.84314169  -268.10851968    -0.00000000    -0.00000000  0.30D-16  0.11D-16  6  4   221.40
  29      1.31276972    -0.84314169  -268.10851968    -0.00000000    -0.00000000  0.71D-17  0.29D-17  6  5   228.23
  30      1.31276972    -0.84314169  -268.10851968    -0.00000000    -0.00000000  0.15D-17  0.54D-18  6  6   235.07
  31      1.31276972    -0.84314169  -268.10851968    -0.00000000    -0.00000000  0.35D-18  0.10D-18  6  2   243.06

 Norm of t1 vector:      0.13869748      S-energy:    -0.00282065      T1 diagnostic:  0.01616698
                                                                       D1 diagnostic:  0.06281732
 Norm of t2 vector:      0.54178660      P-energy:    -0.84032104
                                         Alpha-Beta:  -0.66487465
                                         Alpha-Alpha: -0.09147464
                                         Beta-Beta:   -0.08397175

 Spin contamination <S**2-Sz**2-Sz>     0.00216968

 Memory could be reduced to 28.85 Mwords without degradation in triples
 

 RESULTS
 =======

  Reference energy                   -267.265377984654
  UCCSD singles energy                 -0.002820648283
  UCCSD pair energy                    -0.840321042536
  UCCSD correlation energy             -0.843141690819
  Triples (T) contribution             -0.024976921610
  Total correlation energy             -0.868118612429
 
  RHF-UCCSD energy                   -268.108519675472
  RHF-UCCSD[T] energy                -268.134832183625
  RHF-UCCSD-T energy                 -268.133075168318
 !RHF-UCCSD(T) energy                -268.133496597083

 Program statistics:

 Available memory in ccsd:               999997692
 Min. memory needed in ccsd:               7337057
 Max. memory used in ccsd:                10523002
 Max. memory used in cckext:              10867977 (31 integral passes)
 Max. memory used in cckint:              12633073 ( 1 integral passes)



 **********************************************************************************************************************************
 DATASETS  * FILE   NREC   LENGTH (MB)   RECORD NAMES
              1      18        3.17       500      610      700      900      950      970     1000      129      960     1100   
                                          VAR    BASINP    GEOM    SYMINP    ZMAT    AOBASIS   BASIS     P2S    ABASIS      S 
                                         1400     1410     1200     1210     1080     1600     1650     1700   
                                           T        V       H0       H01     AOSYM     SMH    MOLCAS    OPER   

              2       3        0.77       700     1000     2100   
                                         GEOM     BASIS     RHF  

 PROGRAMS   *        TOTAL  UCCSD(T)       RHF       INT
 CPU TIMES  *       311.73    309.15      1.28      1.24
 REAL TIME  *       326.07 SEC
 DISK USED  *         1.29 GB      
 SF USED    *       553.73 MB      
 GA USED    *         0.00 MB       (max)       0.00 MB       (current)
 **********************************************************************************************************************************

        UCCSD(T)        RHF-SCF 
   -268.13349660   -267.26537798
 **********************************************************************************************************************************
 Variable memory released
