
 Primary working directories    : /tmp/320938.436.gen4.q
 Secondary working directories  : /tmp/320938.436.gen4.q
 Wavefunction directory         : /home/vulcan/mel64643/wfu/
 Main file repository           : /tmp/320938.436.gen4.q/

 ARCHNAME  : Linux/x86_64
 FC        : /opt/intel/compilers_and_libraries_2016.1.150/linux/bin/intel64/ifort
 FCVERSION : 16.0.1
 BLASLIB   : -mkl
 id        : ccgc

 Nodes     nprocs
 n036         3
 Number of processes for MPI-2 version of Molpro:   nprocs(total)=    4   nprocs(compute)=    3   nprocs(helper)=    1
 ga_uses_ma=false, calling ma_init with nominal heap.
 GA-space will be limited to   8.0 MW (determined by -G option)

 Using customized tuning parameters: mindgm=10; mindgv=16; mindgc=4; mindgr=1; noblas=0; mincuda=1000; minvec=7
 default implementation of scratch files=sf  

 ***,Frequencies for min3
 memory,1000,m
 gthresh,energy=1.0d-10,orbital=1.0d-10,oneint=1.0d-16,twoint=1.0d-16,optgrad=1.0d-6,compress=1.0d-13
 geomtyp=xyz
 
  geometry = {
  12
  arbitrary comment
     C    1.776964391707    0.711398808326   -0.047331391796
     C    0.491811976407   -0.059992870174   -0.196493901896
     C    0.450332819107   -1.536294019674    0.101417522804
     O   -0.561250607111    0.727212957755    0.254433283288
     O   -1.837493810948    0.092357788778   -0.120477568666
     H    2.585705118614    0.211145554290   -0.613803517550
     H    1.660994254334    1.742699806476   -0.425881869489
     H    2.095283803477    0.773778018330    1.018368631977
     H   -0.504616376559   -1.982817986674   -0.220073099653
     H    1.282190502140   -2.047366384312   -0.416730443063
     H    0.561726188916   -1.719336609885    1.195014462352
     H   -1.987436115763    0.550925897774   -0.967243633656
  }
 
 basis=cc-pvdz
 {rhf;maxit,200}
 {uccsd(t);maxit,200}

 Variables initialized (661), CPU time= 0.00 sec
 Commands  initialized (458), CPU time= 0.01 sec, 486 directives.
 Default parameters read. Elapsed time= 0.05 sec

 Checking input...
 Passed
1


                                         ***  PROGRAM SYSTEM MOLPRO  ***
                         Copyright, University College Cardiff Consultants Limited, 2008

                                    Version 2010.1 linked May 16 2016 07:17:05


 **********************************************************************************************************************************
 LABEL *   Frequencies for min3                                                          
 Linux-4.4.3/n036(x86_64) 64 bit mpp version                                             DATE: 07-Mar-20          TIME: 03:31:20  
 **********************************************************************************************************************************

 SHA1:             9e8077add272b0f3cad6f7df79ec5211205f459d
 **********************************************************************************************************************************

 THRESHOLDS:

 ZERO    =  1.00D-12  ONEINT  =  1.00D-16  TWOINT  =  1.00D-16  PREFAC  =  1.00D-14  LOCALI  =  1.00D-09  EORDER  =  1.00D-04
 ENERGY  =  1.00D-10  ETEST   =  0.00D+00  EDENS   =  0.00D+00  THRDEDEF=  1.00D-06  GRADIENT=  1.00D-02  STEP    =  1.00D-03
 ORBITAL =  1.00D-10  CIVEC   =  1.00D-05  COEFF   =  1.00D-04  PRINTCI =  5.00D-02  PUNCHCI =  9.90D+01  OPTGRAD =  1.00D-06
 OPTENERG=  1.00D-06  OPTSTEP =  3.00D-04  THRGRAD =  1.00D-10  COMPRESS=  1.00D-13  VARMIN  =  1.00D-07  VARMAX  =  1.00D-03
 THRDOUB =  0.00D+00  THRDIV  =  1.00D-05  THRRED  =  1.00D-07  THRPSP  =  1.00D+00  THRDC   =  1.00D-10  THRCS   =  1.00D-10
 THRNRM  =  1.00D-08  THREQ   =  0.00D+00  THRDE   =  1.00D+00  THRREF  =  1.00D-05  SPARFAC =  1.00D+00  THRDLP  =  1.00D-07
 THRDIA  =  1.00D-10  THRDLS  =  1.00D-07  THRGPS  =  0.00D+00  THRKEX  =  0.00D+00  THRDIS  =  2.00D-01  THRVAR  =  1.00D-10
 THRLOC  =  1.00D-06  THRGAP  =  1.00D-06  THRLOCT = -1.00D+00  THRGAPT = -1.00D+00  THRORB  =  1.00D-06  THRMLTP =  0.00D+00
 THRCPQCI=  1.00D-10  KEXTA   =  0.00D+00  THRCOARS=  0.00D+00  SYMTOL  =  1.00D-06  GRADTOL =  1.00D-06  THROVL  =  1.00D-08
 THRORTH =  1.00D-08  GRID    =  1.00D-06  GRIDMAX =  1.00D-03  DTMAX   =  0.00D+00

 SETTING GEOMTYP        =    XYZ

 Variable memory set to 1000000000 words,  buffer space   230000 words

 SETTING BASIS          =    CC-PVDZ


 Recomputing integrals since basis changed


 Using spherical harmonics

 Library entry C      S cc-pVDZ              selected for orbital group  1
 Library entry C      P cc-pVDZ              selected for orbital group  1
 Library entry C      D cc-pVDZ              selected for orbital group  1
 Library entry O      S cc-pVDZ              selected for orbital group  2
 Library entry O      P cc-pVDZ              selected for orbital group  2
 Library entry O      D cc-pVDZ              selected for orbital group  2
 Library entry H      S cc-pVDZ              selected for orbital group  3
 Library entry H      P cc-pVDZ              selected for orbital group  3

1PROGRAM * SEWARD (Integral evaluation for generally contracted gaussian basis sets)     Author: Roland Lindh, 1990

 Geometry written to block  1 of record 700


 Point group  C1  



 ATOMIC COORDINATES

 NR  ATOM    CHARGE       X              Y              Z

   1  C       6.00    3.357976046    1.344348918   -0.089443368
   2  C       6.00    0.929389944   -0.113370094   -0.371319661
   3  C       6.00    0.851005696   -2.903174955    0.191651343
   4  O       8.00   -1.060609939    1.374233329    0.480809224
   5  O       8.00   -3.472360071    0.174530927   -0.227669610
   6  H       1.00    4.886274531    0.399007271   -1.159920547
   7  H       1.00    3.138824247    3.293225364   -0.804800098
   8  H       1.00    3.959512556    1.462228541    1.924437815
   9  H       1.00   -0.953586753   -3.746982963   -0.415877887
  10  H       1.00    2.422988897   -3.868961757   -0.787506408
  11  H       1.00    1.061508658   -3.249075320    2.258250057
  12  H       1.00   -3.755709962    1.041099066   -1.827825570

 Bond lengths in Bohr (Angstrom)

 1-2  2.846476668  1-6  2.091719025  1-7  2.087554110  1-8  2.105103133  2-3  2.847119878
     ( 1.506290578)     ( 1.106890036)     ( 1.104686058)     ( 1.113972600)     ( 1.506630951)

  2- 4  2.626630373   3- 9  2.082704403   3-10  2.088689837   3-11  2.105893826   4- 5  2.785276793
       ( 1.389952930)       ( 1.102119703)       ( 1.105287058)       ( 1.114391017)       ( 1.473905000)

  5-12  1.841664084
       ( 0.974566660)

 Bond angles

  1-2-3  120.37866573   1-2-4  108.91918789   2-1-6  109.95312384   2-1-7  110.76839720

  2- 1- 8  111.54380755   2- 3- 9  111.29497885   2- 3-10  109.85644094   2- 3-11  110.62431195

  2- 4- 5  109.24174154   3- 2- 4  118.03081536   4- 5-12   98.71720794   6- 1- 7  108.85978614

  6- 1- 8  107.82541695   7- 1- 8  107.79117231   9- 3-10  109.14942099   9- 3-11  107.83776261

 10- 3-11  107.99073505

 NUCLEAR CHARGE:                   41
 NUMBER OF PRIMITIVE AOS:         184
 NUMBER OF SYMMETRY AOS:          179
 NUMBER OF CONTRACTIONS:          105   ( 105A   )
 NUMBER OF CORE ORBITALS:           5   (   5A   )
 NUMBER OF VALENCE ORBITALS:       27   (  27A   )


 NUCLEAR REPULSION ENERGY  183.22205104


 Eigenvalues of metric

         1 0.345E-02 0.435E-02 0.105E-01 0.141E-01 0.182E-01 0.214E-01 0.331E-01 0.346E-01


 Contracted 2-electron integrals neglected if value below      1.0D-16
 AO integral compression algorithm  1   Integral accuracy      1.0D-16

     127.664 MB (compressed) written to integral file ( 93.2%)

     Node minimum: 40.632 MB, node maximum: 45.875 MB


 NUMBER OF SORTED TWO-ELECTRON INTEGRALS:    5164320.     BUFFER LENGTH:  32768
 NUMBER OF SEGMENTS:   1  SEGMENT LENGTH:    5164320      RECORD LENGTH: 524288

 Memory used in sort:       5.72 MW

 SORT1 READ    17075251. AND WROTE     5135893. INTEGRALS IN     15 RECORDS. CPU TIME:     0.23 SEC, REAL TIME:     0.28 SEC
 SORT2 READ    15396564. AND WROTE    15487395. INTEGRALS IN    471 RECORDS. CPU TIME:     0.08 SEC, REAL TIME:     0.11 SEC

 Node minimum:     5160610.  Node maximum:     5164320. integrals

 OPERATOR DM      FOR CENTER  0  COORDINATES:    0.000000    0.000000    0.000000


 **********************************************************************************************************************************
 DATASETS  * FILE   NREC   LENGTH (MB)   RECORD NAMES
              1      18        3.17       500      610      700      900      950      970     1000      129      960     1100   
                                          VAR    BASINP    GEOM    SYMINP    ZMAT    AOBASIS   BASIS     P2S    ABASIS      S 
                                         1400     1410     1200     1210     1080     1600     1650     1700   
                                           T        V       H0       H01     AOSYM     SMH    MOLCAS    OPER   

 PROGRAMS   *        TOTAL       INT
 CPU TIMES  *         1.27      1.22
 REAL TIME  *         1.57 SEC
 DISK USED  *       307.27 MB      
 GA USED    *         0.00 MB       (max)       0.00 MB       (current)
 **********************************************************************************************************************************

1PROGRAM * RHF-SCF (OPEN SHELL)       Authors: W. Meyer, H.-J. Werner


 NUMBER OF ELECTRONS:      21+   20-    SPACE SYMMETRY=1    SPIN SYMMETRY: Doublet 
 CONVERGENCE THRESHOLDS:    1.00E-10 (Density)    1.00E-11 (Energy)
 MAX. NUMBER OF ITERATIONS:      200
 INTERPOLATION TYPE:            DIIS
 INTERPOLATION STEPS:              2 (START)      1 (STEP)
 LEVEL SHIFTS:                 -0.30 (CLOSED)  0.00 (OPEN) 



 Orbital guess generated from atomic densities. Full valence occupancy:   32

 Molecular orbital dump at record        2100.2

 ITERATION    DDIFF          GRAD             ENERGY        2-EL.EN.            DIPOLE MOMENTS         DIIS
    1      0.000D+00      0.000D+00      -267.17836378    555.815677    0.56870    0.04942   -0.74951    0
    2      0.000D+00      0.617D-02      -267.24900174    555.741191    0.41413   -0.13110   -0.59954    1
    3      0.927D-02      0.214D-02      -267.26114538    555.658096    0.39361   -0.05920   -0.62658    2
    4      0.336D-02      0.911D-03      -267.26473199    555.810382    0.37920   -0.09929   -0.64290    3
    5      0.186D-02      0.363D-03      -267.26529537    555.781715    0.38172   -0.09277   -0.63582    4
    6      0.790D-03      0.110D-03      -267.26537051    555.767883    0.37998   -0.09256   -0.63852    5
    7      0.276D-03      0.506D-04      -267.26539021    555.764905    0.37928   -0.09230   -0.63799    6
    8      0.142D-03      0.270D-04      -267.26539614    555.762941    0.37955   -0.09241   -0.63820    7
    9      0.913D-04      0.114D-04      -267.26539704    555.763261    0.37974   -0.09237   -0.63796    8
   10      0.362D-04      0.496D-05      -267.26539719    555.763865    0.37999   -0.09238   -0.63802    9
   11      0.145D-04      0.195D-05      -267.26539722    555.763710    0.38004   -0.09238   -0.63803    9
   12      0.644D-05      0.665D-06      -267.26539722    555.763844    0.38006   -0.09238   -0.63802    9
   13      0.226D-05      0.224D-06      -267.26539722    555.763760    0.38007   -0.09238   -0.63802    9
   14      0.629D-06      0.750D-07      -267.26539722    555.763769    0.38007   -0.09238   -0.63802    9
   15      0.191D-06      0.296D-07      -267.26539722    555.763765    0.38007   -0.09238   -0.63802    9
   16      0.814D-07      0.143D-07      -267.26539722    555.763766    0.38007   -0.09238   -0.63802    9
   17      0.367D-07      0.738D-08      -267.26539722    555.763766    0.38007   -0.09238   -0.63802    9
   18      0.218D-07      0.337D-08      -267.26539722    555.763766    0.38007   -0.09238   -0.63802    9
   19      0.113D-07      0.131D-08      -267.26539722    555.763766    0.38007   -0.09238   -0.63802    9
   20      0.439D-08      0.555D-09      -267.26539722    555.763767    0.38007   -0.09238   -0.63802    9
   21      0.162D-08      0.280D-09      -267.26539722    555.763767    0.38007   -0.09238   -0.63802    9
   22      0.735D-09      0.158D-09      -267.26539722    555.763766    0.38007   -0.09238   -0.63802    9
   23      0.437D-09      0.780D-10      -267.26539722    555.763766    0.38007   -0.09238   -0.63802    9
   24      0.258D-09      0.309D-10      -267.26539722    555.763766    0.38007   -0.09238   -0.63802    9
   25      0.910D-10      0.126D-10      -267.26539722    555.763766    0.38007   -0.09238   -0.63802    0

 Final alpha occupancy:  21
 Final beta  occupancy:  20

 !RHF STATE 1.1 Energy               -267.265397222639
 Nuclear energy                       183.22205104
 One-electron energy                 -728.36933151
 Two-electron energy                  277.88188325
 Virial quotient                       -1.00156409
 !RHF STATE 1.1 Dipole moment           0.38006795    -0.09237926    -0.63802146
 Dipole moment /Debye                   0.96597310    -0.23478929    -1.62158258

 Orbital energies:

         1.1          2.1          3.1          4.1          5.1          6.1          7.1          8.1          9.1         10.1
    -20.630392   -20.628774   -11.279316   -11.238099   -11.232226    -1.470397    -1.240471    -1.023175    -0.945254    -0.768429

        11.1         12.1         13.1         14.1         15.1         16.1         17.1         18.1         19.1         20.1
     -0.704655    -0.643113    -0.626778    -0.588647    -0.545059    -0.543358    -0.538854    -0.516957    -0.492838    -0.469809

        21.1         22.1         23.1
     -0.352363     0.181286     0.183603


 **********************************************************************************************************************************
 DATASETS  * FILE   NREC   LENGTH (MB)   RECORD NAMES
              1      18        3.17       500      610      700      900      950      970     1000      129      960     1100   
                                          VAR    BASINP    GEOM    SYMINP    ZMAT    AOBASIS   BASIS     P2S    ABASIS      S 
                                         1400     1410     1200     1210     1080     1600     1650     1700   
                                           T        V       H0       H01     AOSYM     SMH    MOLCAS    OPER   

              2       3        0.77       700     1000     2100   
                                         GEOM     BASIS     RHF  

 PROGRAMS   *        TOTAL       RHF       INT
 CPU TIMES  *         2.69      1.42      1.22
 REAL TIME  *         3.15 SEC
 DISK USED  *       323.84 MB      
 SF USED    *         0.04 MB      
 GA USED    *         0.00 MB       (max)       0.00 MB       (current)
 **********************************************************************************************************************************


1PROGRAM * CCSD (Unrestricted open-shell coupled cluster)     Authors: C. Hampel, H.-J. Werner, 1991, M. Deegan, P.J. Knowles, 1992


 Convergence thresholds:  THRVAR = 1.00D-08  THRDEN = 1.00D-10

 CCSD(T)     terms to be evaluated (factor= 1.000)


 Number of core orbitals:           5 (   5 )
 Number of closed-shell orbitals:  15 (  15 )
 Number of active  orbitals:        1 (   1 )
 Number of external orbitals:      84 (  84 )

 Memory could be reduced to 24.91 Mwords without degradation in triples

 Number of N-1 electron functions:              31
 Number of N-2 electron functions:             465
 Number of singly external CSFs:              2635
 Number of doubly external CSFs:           2537250
 Total number of CSFs:                     2539885

 Molecular orbitals read from record     2100.2  Type=RHF/CANONICAL (state 1.1)

 Integral transformation finished. Total CPU:   1.61 sec, npass=  1  Memory used:  12.63 MW

 Starting RMP2 calculation

 ITER.      SQ.NORM     CORR.ENERGY   TOTAL ENERGY   ENERGY CHANGE        DEN1      VAR(S)    VAR(P)  DIIS     TIME
   1      1.24302302    -0.78636509  -268.05176232    -0.78636509    -0.00304967  0.20D-04  0.11D-02  1  1     2.10
   2      1.24566396    -0.78965394  -268.05505117    -0.00328885    -0.00000474  0.54D-06  0.19D-05  2  2     2.52
   3      1.24572946    -0.78969598  -268.05509321    -0.00004204    -0.00000003  0.16D-07  0.68D-08  3  3     2.97
   4      1.24573041    -0.78969599  -268.05509321    -0.00000000    -0.00000000  0.27D-09  0.38D-10  4  4     3.45
   5      1.24573050    -0.78969602  -268.05509324    -0.00000003    -0.00000000  0.25D-11  0.65D-12  5  5     3.97
   6      1.24573051    -0.78969602  -268.05509325    -0.00000001    -0.00000000  0.28D-13  0.87D-14  6  6     4.51
   7      1.24573051    -0.78969602  -268.05509325     0.00000000    -0.00000000  0.47D-15  0.12D-15  6  1     5.06
   8      1.24573051    -0.78969602  -268.05509325     0.00000000    -0.00000000  0.59D-17  0.13D-17  6  2     5.61

 Norm of t1 vector:      0.03893324      S-energy:    -0.00227156      T1 diagnostic:  0.00055037
 Norm of t2 vector:      0.49418085      P-energy:    -0.78742446
                                         Alpha-Beta:  -0.59341010
                                         Alpha-Alpha: -0.10093793
                                         Beta-Beta:   -0.09307644

 Spin contamination <S**2-Sz**2-Sz>     0.00104041
  Reference energy                   -267.265397222637
  RHF-RMP2 correlation energy          -0.789696024656
 !RHF-RMP2 energy                    -268.055093247293

 Starting UCCSD calculation

 ITER.      SQ.NORM     CORR.ENERGY   TOTAL ENERGY   ENERGY CHANGE        DEN1      VAR(S)    VAR(P)  DIIS     TIME
   1      1.26281162    -0.80905034  -268.07444756    -0.80905034    -0.02515399  0.38D-02  0.59D-02  1  1    15.45
   2      1.29158467    -0.83645968  -268.10185691    -0.02740935    -0.00201021  0.22D-03  0.66D-03  2  2    25.39
   3      1.30152124    -0.84095687  -268.10635409    -0.00449718    -0.00032441  0.19D-03  0.56D-04  3  3    35.11
   4      1.30642802    -0.84243307  -268.10783029    -0.00147620    -0.00007197  0.43D-04  0.14D-04  4  4    45.13
   5      1.30915265    -0.84282074  -268.10821796    -0.00038767    -0.00002360  0.19D-04  0.32D-05  5  5    54.98
   6      1.31108533    -0.84302472  -268.10842194    -0.00020398    -0.00000642  0.42D-05  0.12D-05  6  6    64.80
   7      1.31202913    -0.84308324  -268.10848046    -0.00005852    -0.00000206  0.14D-05  0.36D-06  6  2    74.47
   8      1.31246626    -0.84312563  -268.10852286    -0.00004239    -0.00000064  0.44D-06  0.11D-06  6  1    84.29
   9      1.31264872    -0.84313012  -268.10852734    -0.00000449    -0.00000022  0.15D-06  0.34D-07  6  4    94.12
  10      1.31271076    -0.84313301  -268.10853024    -0.00000289    -0.00000005  0.34D-07  0.94D-08  6  3   104.17
  11      1.31273972    -0.84313174  -268.10852896     0.00000127    -0.00000002  0.13D-07  0.28D-08  6  5   113.99
  12      1.31274987    -0.84313147  -268.10852869     0.00000027    -0.00000000  0.25D-08  0.94D-09  6  6   123.65
  13      1.31274871    -0.84313056  -268.10852778     0.00000091    -0.00000000  0.95D-09  0.28D-09  6  2   133.50
  14      1.31274353    -0.84312972  -268.10852694     0.00000084    -0.00000000  0.21D-09  0.67D-10  6  1   143.35
  15      1.31273949    -0.84312914  -268.10852636     0.00000058    -0.00000000  0.77D-10  0.19D-10  6  4   153.28
  16      1.31273633    -0.84312876  -268.10852598     0.00000038    -0.00000000  0.27D-10  0.62D-11  6  3   162.99
  17      1.31273415    -0.84312852  -268.10852574     0.00000024    -0.00000000  0.98D-11  0.23D-11  6  5   172.89
  18      1.31273326    -0.84312846  -268.10852568     0.00000006    -0.00000000  0.40D-11  0.85D-12  6  6   182.56
  19      1.31273266    -0.84312843  -268.10852565     0.00000003    -0.00000000  0.16D-11  0.36D-12  6  2   192.62
  20      1.31273235    -0.84312842  -268.10852564     0.00000001    -0.00000000  0.58D-12  0.13D-12  6  1   202.29
  21      1.31273219    -0.84312841  -268.10852563     0.00000001    -0.00000000  0.27D-12  0.56D-13  6  4   212.19
  22      1.31273207    -0.84312840  -268.10852562     0.00000001    -0.00000000  0.72D-13  0.21D-13  6  3   222.04
  23      1.31273201    -0.84312839  -268.10852562     0.00000000    -0.00000000  0.21D-13  0.61D-14  6  5   231.93
  24      1.31273201    -0.84312839  -268.10852562    -0.00000000    -0.00000000  0.66D-14  0.22D-14  6  6   242.24
  25      1.31273201    -0.84312840  -268.10852562    -0.00000000    -0.00000000  0.20D-14  0.51D-15  6  2   252.09
  26      1.31273202    -0.84312840  -268.10852562    -0.00000000    -0.00000000  0.75D-15  0.15D-15  6  1   261.97
  27      1.31273203    -0.84312840  -268.10852562    -0.00000000    -0.00000000  0.19D-15  0.61D-16  6  3   271.82
  28      1.31273203    -0.84312840  -268.10852562    -0.00000000    -0.00000000  0.29D-16  0.10D-16  6  4   281.49
  29      1.31273203    -0.84312840  -268.10852562    -0.00000000    -0.00000000  0.68D-17  0.28D-17  6  5   291.55
  30      1.31273204    -0.84312840  -268.10852562    -0.00000000    -0.00000000  0.15D-17  0.52D-18  6  6   301.40
  31      1.31273204    -0.84312840  -268.10852562    -0.00000000    -0.00000000  0.34D-18  0.10D-18  6  2   311.19

 Norm of t1 vector:      0.13861613      S-energy:    -0.00282076      T1 diagnostic:  0.01615756
                                                                       D1 diagnostic:  0.06282441
 Norm of t2 vector:      0.54177265      P-energy:    -0.84030764
                                         Alpha-Beta:  -0.66486639
                                         Alpha-Alpha: -0.09147185
                                         Beta-Beta:   -0.08396939

 Spin contamination <S**2-Sz**2-Sz>     0.00215980

 Memory could be reduced to 28.85 Mwords without degradation in triples
 

 RESULTS
 =======

  Reference energy                   -267.265397222637
  UCCSD singles energy                 -0.002820760424
  UCCSD pair energy                    -0.840307637533
  UCCSD correlation energy             -0.843128397957
  Triples (T) contribution             -0.024969557180
  Total correlation energy             -0.868097955137
 
  RHF-UCCSD energy                   -268.108525620594
  RHF-UCCSD[T] energy                -268.134830653255
  RHF-UCCSD-T energy                 -268.133073281160
 !RHF-UCCSD(T) energy                -268.133495177775

 Program statistics:

 Available memory in ccsd:               999997692
 Min. memory needed in ccsd:               7337057
 Max. memory used in ccsd:                10523002
 Max. memory used in cckext:              10867977 (31 integral passes)
 Max. memory used in cckint:              12633073 ( 1 integral passes)



 **********************************************************************************************************************************
 DATASETS  * FILE   NREC   LENGTH (MB)   RECORD NAMES
              1      18        3.17       500      610      700      900      950      970     1000      129      960     1100   
                                          VAR    BASINP    GEOM    SYMINP    ZMAT    AOBASIS   BASIS     P2S    ABASIS      S 
                                         1400     1410     1200     1210     1080     1600     1650     1700   
                                           T        V       H0       H01     AOSYM     SMH    MOLCAS    OPER   

              2       3        0.77       700     1000     2100   
                                         GEOM     BASIS     RHF  

 PROGRAMS   *        TOTAL  UCCSD(T)       RHF       INT
 CPU TIMES  *       392.04    389.35      1.42      1.22
 REAL TIME  *       405.43 SEC
 DISK USED  *         1.29 GB      
 SF USED    *       553.73 MB      
 GA USED    *         0.00 MB       (max)       0.00 MB       (current)
 **********************************************************************************************************************************

        UCCSD(T)        RHF-SCF 
   -268.13349518   -267.26539722
 **********************************************************************************************************************************
 Variable memory released
