
 Primary working directories    : /tmp/320938.164.gen4.q
 Secondary working directories  : /tmp/320938.164.gen4.q
 Wavefunction directory         : /home/vulcan/mel64643/wfu/
 Main file repository           : /tmp/320938.164.gen4.q/

 ARCHNAME  : Linux/x86_64
 FC        : /opt/intel/compilers_and_libraries_2016.1.150/linux/bin/intel64/ifort
 FCVERSION : 16.0.1
 BLASLIB   : -mkl
 id        : ccgc

 Nodes     nprocs
 n064         3
 Number of processes for MPI-2 version of Molpro:   nprocs(total)=    4   nprocs(compute)=    3   nprocs(helper)=    1
 ga_uses_ma=false, calling ma_init with nominal heap.
 GA-space will be limited to   8.0 MW (determined by -G option)

 Using customized tuning parameters: mindgm=10; mindgv=16; mindgc=4; mindgr=1; noblas=0; mincuda=1000; minvec=7
 default implementation of scratch files=sf  

 ***,Frequencies for min3
 memory,1000,m
 gthresh,energy=1.0d-10,orbital=1.0d-10,oneint=1.0d-16,twoint=1.0d-16,optgrad=1.0d-6,compress=1.0d-13
 geomtyp=xyz
 
  geometry = {
  12
  arbitrary comment
     C    1.776964391707    0.711398808326   -0.047331391796
     C    0.491811976407   -0.059992870174   -0.196493901896
     C    0.450332819107   -1.536294019674    0.101417522804
     O   -0.560767745493    0.727234937526    0.254453964104
     O   -1.837840335593    0.092269037726   -0.120531795196
     H    2.582969868185    0.211360520906   -0.611309452749
     H    1.660979399716    1.742835375483   -0.426509267688
     H    2.095508313200    0.774003999423    1.017729838996
     H   -0.504531512075   -1.982710166064   -0.220155372101
     H    1.282246293383   -2.047237191955   -0.417083293814
     H    0.562023407518   -1.719128514037    1.194753410574
     H   -1.987512161478    0.550963980925   -0.967242937487
  }
 
 basis=cc-pvdz
 {rhf;maxit,200}
 {uccsd(t);maxit,200}

 Variables initialized (661), CPU time= 0.00 sec
 Commands  initialized (458), CPU time= 0.01 sec, 486 directives.
 Default parameters read. Elapsed time= 0.06 sec

 Checking input...
 Passed
1


                                         ***  PROGRAM SYSTEM MOLPRO  ***
                         Copyright, University College Cardiff Consultants Limited, 2008

                                    Version 2010.1 linked May 16 2016 07:17:05


 **********************************************************************************************************************************
 LABEL *   Frequencies for min3                                                          
 Linux-4.4.3/n064(x86_64) 64 bit mpp version                                             DATE: 07-Mar-20          TIME: 01:54:49  
 **********************************************************************************************************************************

 SHA1:             9e8077add272b0f3cad6f7df79ec5211205f459d
 **********************************************************************************************************************************

 THRESHOLDS:

 ZERO    =  1.00D-12  ONEINT  =  1.00D-16  TWOINT  =  1.00D-16  PREFAC  =  1.00D-14  LOCALI  =  1.00D-09  EORDER  =  1.00D-04
 ENERGY  =  1.00D-10  ETEST   =  0.00D+00  EDENS   =  0.00D+00  THRDEDEF=  1.00D-06  GRADIENT=  1.00D-02  STEP    =  1.00D-03
 ORBITAL =  1.00D-10  CIVEC   =  1.00D-05  COEFF   =  1.00D-04  PRINTCI =  5.00D-02  PUNCHCI =  9.90D+01  OPTGRAD =  1.00D-06
 OPTENERG=  1.00D-06  OPTSTEP =  3.00D-04  THRGRAD =  1.00D-10  COMPRESS=  1.00D-13  VARMIN  =  1.00D-07  VARMAX  =  1.00D-03
 THRDOUB =  0.00D+00  THRDIV  =  1.00D-05  THRRED  =  1.00D-07  THRPSP  =  1.00D+00  THRDC   =  1.00D-10  THRCS   =  1.00D-10
 THRNRM  =  1.00D-08  THREQ   =  0.00D+00  THRDE   =  1.00D+00  THRREF  =  1.00D-05  SPARFAC =  1.00D+00  THRDLP  =  1.00D-07
 THRDIA  =  1.00D-10  THRDLS  =  1.00D-07  THRGPS  =  0.00D+00  THRKEX  =  0.00D+00  THRDIS  =  2.00D-01  THRVAR  =  1.00D-10
 THRLOC  =  1.00D-06  THRGAP  =  1.00D-06  THRLOCT = -1.00D+00  THRGAPT = -1.00D+00  THRORB  =  1.00D-06  THRMLTP =  0.00D+00
 THRCPQCI=  1.00D-10  KEXTA   =  0.00D+00  THRCOARS=  0.00D+00  SYMTOL  =  1.00D-06  GRADTOL =  1.00D-06  THROVL  =  1.00D-08
 THRORTH =  1.00D-08  GRID    =  1.00D-06  GRIDMAX =  1.00D-03  DTMAX   =  0.00D+00

 SETTING GEOMTYP        =    XYZ

 Variable memory set to 1000000000 words,  buffer space   230000 words

 SETTING BASIS          =    CC-PVDZ


 Recomputing integrals since basis changed


 Using spherical harmonics

 Library entry C      S cc-pVDZ              selected for orbital group  1
 Library entry C      P cc-pVDZ              selected for orbital group  1
 Library entry C      D cc-pVDZ              selected for orbital group  1
 Library entry O      S cc-pVDZ              selected for orbital group  2
 Library entry O      P cc-pVDZ              selected for orbital group  2
 Library entry O      D cc-pVDZ              selected for orbital group  2
 Library entry H      S cc-pVDZ              selected for orbital group  3
 Library entry H      P cc-pVDZ              selected for orbital group  3

1PROGRAM * SEWARD (Integral evaluation for generally contracted gaussian basis sets)     Author: Roland Lindh, 1990

 Geometry written to block  1 of record 700


 Point group  C1  



 ATOMIC COORDINATES

 NR  ATOM    CHARGE       X              Y              Z

   1  C       6.00    3.357976046    1.344348918   -0.089443368
   2  C       6.00    0.929389944   -0.113370094   -0.371319661
   3  C       6.00    0.851005696   -2.903174955    0.191651343
   4  O       8.00   -1.059697462    1.374274865    0.480848305
   5  O       8.00   -3.473014908    0.174363212   -0.227772083
   6  H       1.00    4.881105657    0.399413500   -1.155207447
   7  H       1.00    3.138796175    3.293481552   -0.805985708
   8  H       1.00    3.959936818    1.462655584    1.923230671
   9  H       1.00   -0.953426382   -3.746779212   -0.416033360
  10  H       1.00    2.423094328   -3.868717619   -0.788173199
  11  H       1.00    1.062070320   -3.248682076    2.257756741
  12  H       1.00   -3.755853668    1.041171032   -1.827824254

 Bond lengths in Bohr (Angstrom)

 1-2  2.846476668  1-6  2.085348851  1-7  2.088202760  1-8  2.104093636  2-3  2.847119878
     ( 1.506290578)     ( 1.103519085)     ( 1.105029308)     ( 1.113438398)     ( 1.506630951)

  2- 4  2.625975338   3- 9  2.082528263   3-10  2.088968989   3-11  2.105401377   4- 5  2.786760112
       ( 1.389606300)       ( 1.102026494)       ( 1.105434779)       ( 1.114130425)       ( 1.474689938)

  5-12  1.841608132
       ( 0.974537052)

 Bond angles

  1-2-3  120.37866573   1-2-4  108.90555081   2-1-6  109.90748932   2-1-7  110.76134981

  2- 1- 8  111.56816222   2- 3- 9  111.28993430   2- 3-10  109.84277087   2- 3-11  110.61486572

  2- 4- 5  109.23946113   3- 2- 4  118.03986083   4- 5-12   98.70031406   6- 1- 7  108.91999730

  6- 1- 8  107.78139189   7- 1- 8  107.80482571   9- 3-10  109.14542574   9- 3-11  107.86290269

 10- 3-11  107.99881310

 NUCLEAR CHARGE:                   41
 NUMBER OF PRIMITIVE AOS:         184
 NUMBER OF SYMMETRY AOS:          179
 NUMBER OF CONTRACTIONS:          105   ( 105A   )
 NUMBER OF CORE ORBITALS:           5   (   5A   )
 NUMBER OF VALENCE ORBITALS:       27   (  27A   )


 NUCLEAR REPULSION ENERGY  183.23072848


 Eigenvalues of metric

         1 0.345E-02 0.435E-02 0.105E-01 0.141E-01 0.182E-01 0.214E-01 0.331E-01 0.345E-01


 Contracted 2-electron integrals neglected if value below      1.0D-16
 AO integral compression algorithm  1   Integral accuracy      1.0D-16

     127.402 MB (compressed) written to integral file ( 93.4%)

     Node minimum: 41.157 MB, node maximum: 44.040 MB


 NUMBER OF SORTED TWO-ELECTRON INTEGRALS:    5164320.     BUFFER LENGTH:  32768
 NUMBER OF SEGMENTS:   1  SEGMENT LENGTH:    5164320      RECORD LENGTH: 524288

 Memory used in sort:       5.72 MW

 SORT1 READ    17075629. AND WROTE     5136023. INTEGRALS IN     15 RECORDS. CPU TIME:     0.22 SEC, REAL TIME:     0.26 SEC
 SORT2 READ    15397000. AND WROTE    15487395. INTEGRALS IN    483 RECORDS. CPU TIME:     0.07 SEC, REAL TIME:     0.11 SEC

 Node minimum:     5160610.  Node maximum:     5164320. integrals

 OPERATOR DM      FOR CENTER  0  COORDINATES:    0.000000    0.000000    0.000000


 **********************************************************************************************************************************
 DATASETS  * FILE   NREC   LENGTH (MB)   RECORD NAMES
              1      18        3.17       500      610      700      900      950      970     1000      129      960     1100   
                                          VAR    BASINP    GEOM    SYMINP    ZMAT    AOBASIS   BASIS     P2S    ABASIS      S 
                                         1400     1410     1200     1210     1080     1600     1650     1700   
                                           T        V       H0       H01     AOSYM     SMH    MOLCAS    OPER   

 PROGRAMS   *        TOTAL       INT
 CPU TIMES  *         0.98      0.90
 REAL TIME  *         1.41 SEC
 DISK USED  *       305.44 MB      
 GA USED    *         0.00 MB       (max)       0.00 MB       (current)
 **********************************************************************************************************************************

1PROGRAM * RHF-SCF (OPEN SHELL)       Authors: W. Meyer, H.-J. Werner


 NUMBER OF ELECTRONS:      21+   20-    SPACE SYMMETRY=1    SPIN SYMMETRY: Doublet 
 CONVERGENCE THRESHOLDS:    1.00E-10 (Density)    1.00E-11 (Energy)
 MAX. NUMBER OF ITERATIONS:      200
 INTERPOLATION TYPE:            DIIS
 INTERPOLATION STEPS:              2 (START)      1 (STEP)
 LEVEL SHIFTS:                 -0.30 (CLOSED)  0.00 (OPEN) 



 Orbital guess generated from atomic densities. Full valence occupancy:   32

 Molecular orbital dump at record        2100.2

 ITERATION    DDIFF          GRAD             ENERGY        2-EL.EN.            DIPOLE MOMENTS         DIIS
    1      0.000D+00      0.000D+00      -267.17826272    555.834161    0.57014    0.04956   -0.74922    0
    2      0.000D+00      0.617D-02      -267.24895122    555.755852    0.41450   -0.13123   -0.59895    1
    3      0.928D-02      0.214D-02      -267.26112476    555.673685    0.39432   -0.05937   -0.62639    2
    4      0.336D-02      0.912D-03      -267.26473101    555.826004    0.37980   -0.09957   -0.64282    3
    5      0.186D-02      0.363D-03      -267.26529961    555.797391    0.38239   -0.09309   -0.63581    4
    6      0.792D-03      0.110D-03      -267.26537593    555.783618    0.38067   -0.09290   -0.63855    5
    7      0.277D-03      0.511D-04      -267.26539604    555.780614    0.37997   -0.09264   -0.63804    6
    8      0.144D-03      0.273D-04      -267.26540209    555.778663    0.38025   -0.09276   -0.63825    7
    9      0.924D-04      0.115D-04      -267.26540301    555.778975    0.38043   -0.09271   -0.63801    8
   10      0.366D-04      0.501D-05      -267.26540317    555.779588    0.38069   -0.09273   -0.63808    9
   11      0.146D-04      0.196D-05      -267.26540320    555.779430    0.38074   -0.09272   -0.63808    9
   12      0.650D-05      0.670D-06      -267.26540320    555.779564    0.38076   -0.09272   -0.63808    9
   13      0.227D-05      0.226D-06      -267.26540320    555.779480    0.38076   -0.09272   -0.63807    9
   14      0.632D-06      0.757D-07      -267.26540320    555.779489    0.38077   -0.09272   -0.63807    9
   15      0.192D-06      0.300D-07      -267.26540320    555.779485    0.38077   -0.09272   -0.63807    9
   16      0.824D-07      0.145D-07      -267.26540320    555.779486    0.38077   -0.09272   -0.63807    9
   17      0.374D-07      0.750D-08      -267.26540320    555.779486    0.38077   -0.09272   -0.63807    9
   18      0.222D-07      0.341D-08      -267.26540320    555.779486    0.38077   -0.09272   -0.63807    9
   19      0.114D-07      0.133D-08      -267.26540320    555.779486    0.38077   -0.09272   -0.63807    9
   20      0.443D-08      0.566D-09      -267.26540320    555.779486    0.38077   -0.09272   -0.63807    9
   21      0.165D-08      0.286D-09      -267.26540320    555.779486    0.38077   -0.09272   -0.63807    9
   22      0.753D-09      0.161D-09      -267.26540320    555.779486    0.38077   -0.09272   -0.63807    9
   23      0.446D-09      0.794D-10      -267.26540320    555.779486    0.38077   -0.09272   -0.63807    9
   24      0.263D-09      0.316D-10      -267.26540320    555.779486    0.38077   -0.09272   -0.63807    9
   25      0.930D-10      0.129D-10      -267.26540320    555.779486    0.38077   -0.09272   -0.63807    0

 Final alpha occupancy:  21
 Final beta  occupancy:  20

 !RHF STATE 1.1 Energy               -267.265403198664
 Nuclear energy                       183.23072848
 One-electron energy                 -728.38587484
 Two-electron energy                  277.88974316
 Virial quotient                       -1.00154695
 !RHF STATE 1.1 Dipole moment           0.38076712    -0.09272330    -0.63807419
 Dipole moment /Debye                   0.96775009    -0.23566369    -1.62171660

 Orbital energies:

         1.1          2.1          3.1          4.1          5.1          6.1          7.1          8.1          9.1         10.1
    -20.630439   -20.628809   -11.279245   -11.237693   -11.232203    -1.470139    -1.240668    -1.023287    -0.945437    -0.768472

        11.1         12.1         13.1         14.1         15.1         16.1         17.1         18.1         19.1         20.1
     -0.704548    -0.643034    -0.626816    -0.588743    -0.545173    -0.543432    -0.539190    -0.516952    -0.492980    -0.469783

        21.1         22.1         23.1
     -0.352300     0.181285     0.183620


 **********************************************************************************************************************************
 DATASETS  * FILE   NREC   LENGTH (MB)   RECORD NAMES
              1      18        3.17       500      610      700      900      950      970     1000      129      960     1100   
                                          VAR    BASINP    GEOM    SYMINP    ZMAT    AOBASIS   BASIS     P2S    ABASIS      S 
                                         1400     1410     1200     1210     1080     1600     1650     1700   
                                           T        V       H0       H01     AOSYM     SMH    MOLCAS    OPER   

              2       3        0.77       700     1000     2100   
                                         GEOM     BASIS     RHF  

 PROGRAMS   *        TOTAL       RHF       INT
 CPU TIMES  *         2.07      1.09      0.90
 REAL TIME  *         2.65 SEC
 DISK USED  *       322.01 MB      
 SF USED    *         0.04 MB      
 GA USED    *         0.00 MB       (max)       0.00 MB       (current)
 **********************************************************************************************************************************


1PROGRAM * CCSD (Unrestricted open-shell coupled cluster)     Authors: C. Hampel, H.-J. Werner, 1991, M. Deegan, P.J. Knowles, 1992


 Convergence thresholds:  THRVAR = 1.00D-08  THRDEN = 1.00D-10

 CCSD(T)     terms to be evaluated (factor= 1.000)


 Number of core orbitals:           5 (   5 )
 Number of closed-shell orbitals:  15 (  15 )
 Number of active  orbitals:        1 (   1 )
 Number of external orbitals:      84 (  84 )

 Memory could be reduced to 24.91 Mwords without degradation in triples

 Number of N-1 electron functions:              31
 Number of N-2 electron functions:             465
 Number of singly external CSFs:              2635
 Number of doubly external CSFs:           2537250
 Total number of CSFs:                     2539885

 Molecular orbitals read from record     2100.2  Type=RHF/CANONICAL (state 1.1)

 Integral transformation finished. Total CPU:   1.25 sec, npass=  1  Memory used:  12.63 MW

 Starting RMP2 calculation

 ITER.      SQ.NORM     CORR.ENERGY   TOTAL ENERGY   ENERGY CHANGE        DEN1      VAR(S)    VAR(P)  DIIS     TIME
   1      1.24301505    -0.78637231  -268.05177551    -0.78637231    -0.00304949  0.20D-04  0.11D-02  1  1     1.69
   2      1.24565604    -0.78966097  -268.05506417    -0.00328866    -0.00000474  0.54D-06  0.19D-05  2  2     2.06
   3      1.24572158    -0.78970303  -268.05510623    -0.00004206    -0.00000003  0.16D-07  0.68D-08  3  3     2.46
   4      1.24572254    -0.78970303  -268.05510623    -0.00000000    -0.00000000  0.27D-09  0.38D-10  4  4     2.89
   5      1.24572262    -0.78970307  -268.05510626    -0.00000003    -0.00000000  0.25D-11  0.65D-12  5  5     3.34
   6      1.24572263    -0.78970307  -268.05510627    -0.00000001    -0.00000000  0.28D-13  0.87D-14  6  6     3.83
   7      1.24572263    -0.78970307  -268.05510627     0.00000000    -0.00000000  0.47D-15  0.12D-15  6  1     4.32
   8      1.24572263    -0.78970307  -268.05510627     0.00000000    -0.00000000  0.59D-17  0.13D-17  6  2     4.81

 Norm of t1 vector:      0.03892880      S-energy:    -0.00227125      T1 diagnostic:  0.00055028
 Norm of t2 vector:      0.49417323      P-energy:    -0.78743182
                                         Alpha-Beta:  -0.59340810
                                         Alpha-Alpha: -0.10094222
                                         Beta-Beta:   -0.09308150

 Spin contamination <S**2-Sz**2-Sz>     0.00104022
  Reference energy                   -267.265403198663
  RHF-RMP2 correlation energy          -0.789703070989
 !RHF-RMP2 energy                    -268.055106269652

 Starting UCCSD calculation

 ITER.      SQ.NORM     CORR.ENERGY   TOTAL ENERGY   ENERGY CHANGE        DEN1      VAR(S)    VAR(P)  DIIS     TIME
   1      1.26278238    -0.80903906  -268.07444226    -0.80903906    -0.02515488  0.38D-02  0.59D-02  1  1    12.50
   2      1.29155225    -0.83644607  -268.10184927    -0.02740701    -0.00201111  0.22D-03  0.66D-03  2  2    20.06
   3      1.30149235    -0.84094358  -268.10634677    -0.00449751    -0.00032465  0.19D-03  0.56D-04  3  3    27.66
   4      1.30640586    -0.84242073  -268.10782393    -0.00147716    -0.00007208  0.43D-04  0.14D-04  4  4    35.19
   5      1.30913579    -0.84280887  -268.10821206    -0.00038813    -0.00002366  0.19D-04  0.32D-05  5  5    42.81
   6      1.31107439    -0.84301331  -268.10841651    -0.00020445    -0.00000645  0.42D-05  0.12D-05  6  6    50.59
   7      1.31202294    -0.84307206  -268.10847526    -0.00005874    -0.00000208  0.14D-05  0.37D-06  6  2    58.36
   8      1.31246395    -0.84311471  -268.10851790    -0.00004265    -0.00000065  0.45D-06  0.11D-06  6  1    66.14
   9      1.31264882    -0.84311928  -268.10852248    -0.00000457    -0.00000022  0.15D-06  0.35D-07  6  4    73.94
  10      1.31271186    -0.84312220  -268.10852540    -0.00000292    -0.00000005  0.35D-07  0.95D-08  6  3    79.44
  11      1.31274133    -0.84312094  -268.10852414     0.00000126    -0.00000002  0.13D-07  0.28D-08  6  5    84.93
  12      1.31275169    -0.84312068  -268.10852388     0.00000026    -0.00000000  0.26D-08  0.95D-09  6  6    90.44
  13      1.31275054    -0.84311977  -268.10852297     0.00000091    -0.00000000  0.96D-09  0.28D-09  6  2    95.90
  14      1.31274533    -0.84311892  -268.10852212     0.00000084    -0.00000000  0.21D-09  0.67D-10  6  1   101.40
  15      1.31274126    -0.84311834  -268.10852154     0.00000059    -0.00000000  0.78D-10  0.19D-10  6  4   106.91
  16      1.31273808    -0.84311795  -268.10852115     0.00000038    -0.00000000  0.28D-10  0.63D-11  6  3   112.43
  17      1.31273588    -0.84311771  -268.10852091     0.00000024    -0.00000000  0.10D-10  0.24D-11  6  5   118.55
  18      1.31273498    -0.84311765  -268.10852085     0.00000006    -0.00000000  0.41D-11  0.87D-12  6  6   126.45
  19      1.31273437    -0.84311762  -268.10852082     0.00000003    -0.00000000  0.16D-11  0.37D-12  6  2   134.39
  20      1.31273405    -0.84311761  -268.10852081     0.00000001    -0.00000000  0.60D-12  0.13D-12  6  1   142.30
  21      1.31273389    -0.84311760  -268.10852080     0.00000001    -0.00000000  0.28D-12  0.58D-13  6  4   150.16
  22      1.31273377    -0.84311759  -268.10852079     0.00000001    -0.00000000  0.73D-13  0.21D-13  6  3   158.03
  23      1.31273371    -0.84311759  -268.10852079     0.00000000    -0.00000000  0.21D-13  0.62D-14  6  5   165.94
  24      1.31273370    -0.84311759  -268.10852079    -0.00000000    -0.00000000  0.67D-14  0.22D-14  6  6   173.86
  25      1.31273371    -0.84311759  -268.10852079    -0.00000000    -0.00000000  0.21D-14  0.52D-15  6  2   181.64
  26      1.31273371    -0.84311759  -268.10852079    -0.00000000    -0.00000000  0.77D-15  0.15D-15  6  1   189.44
  27      1.31273372    -0.84311759  -268.10852079    -0.00000000    -0.00000000  0.20D-15  0.62D-16  6  3   197.47
  28      1.31273373    -0.84311759  -268.10852079    -0.00000000    -0.00000000  0.29D-16  0.11D-16  6  4   205.34
  29      1.31273373    -0.84311759  -268.10852079    -0.00000000    -0.00000000  0.70D-17  0.29D-17  6  5   213.31
  30      1.31273373    -0.84311759  -268.10852079    -0.00000000    -0.00000000  0.15D-17  0.54D-18  6  6   221.19
  31      1.31273373    -0.84311759  -268.10852079    -0.00000000    -0.00000000  0.35D-18  0.10D-18  6  2   226.73

 Norm of t1 vector:      0.13871161      S-energy:    -0.00282071      T1 diagnostic:  0.01616899
                                                                       D1 diagnostic:  0.06283237
 Norm of t2 vector:      0.54174978      P-energy:    -0.84029689
                                         Alpha-Beta:  -0.66484848
                                         Alpha-Alpha: -0.09147522
                                         Beta-Beta:   -0.08397318

 Spin contamination <S**2-Sz**2-Sz>     0.00217024

 Memory could be reduced to 28.85 Mwords without degradation in triples
 

 RESULTS
 =======

  Reference energy                   -267.265403198663
  UCCSD singles energy                 -0.002820706052
  UCCSD pair energy                    -0.840296885392
  UCCSD correlation energy             -0.843117591444
  Triples (T) contribution             -0.024974770407
  Total correlation energy             -0.868092361851
 
  RHF-UCCSD energy                   -268.108520790107
  RHF-UCCSD[T] energy                -268.134831488053
  RHF-UCCSD-T energy                 -268.133074032886
 !RHF-UCCSD(T) energy                -268.133495560515

 Program statistics:

 Available memory in ccsd:               999997692
 Min. memory needed in ccsd:               7337057
 Max. memory used in ccsd:                10523002
 Max. memory used in cckext:              10867977 (31 integral passes)
 Max. memory used in cckint:              12633073 ( 1 integral passes)



 **********************************************************************************************************************************
 DATASETS  * FILE   NREC   LENGTH (MB)   RECORD NAMES
              1      18        3.17       500      610      700      900      950      970     1000      129      960     1100   
                                          VAR    BASINP    GEOM    SYMINP    ZMAT    AOBASIS   BASIS     P2S    ABASIS      S 
                                         1400     1410     1200     1210     1080     1600     1650     1700   
                                           T        V       H0       H01     AOSYM     SMH    MOLCAS    OPER   

              2       3        0.77       700     1000     2100   
                                         GEOM     BASIS     RHF  

 PROGRAMS   *        TOTAL  UCCSD(T)       RHF       INT
 CPU TIMES  *       274.80    272.73      1.09      0.90
 REAL TIME  *       286.32 SEC
 DISK USED  *         1.29 GB      
 SF USED    *       553.73 MB      
 GA USED    *         0.00 MB       (max)       0.00 MB       (current)
 **********************************************************************************************************************************

        UCCSD(T)        RHF-SCF 
   -268.13349556   -267.26540320
 **********************************************************************************************************************************
 Variable memory released
