
 Primary working directories    : /tmp/320938.555.gen4.q
 Secondary working directories  : /tmp/320938.555.gen4.q
 Wavefunction directory         : /home/vulcan/mel64643/wfu/
 Main file repository           : /tmp/320938.555.gen4.q/

 ARCHNAME  : Linux/x86_64
 FC        : /opt/intel/compilers_and_libraries_2016.1.150/linux/bin/intel64/ifort
 FCVERSION : 16.0.1
 BLASLIB   : -mkl
 id        : ccgc

 Nodes     nprocs
 n021         3
 Number of processes for MPI-2 version of Molpro:   nprocs(total)=    4   nprocs(compute)=    3   nprocs(helper)=    1
 ga_uses_ma=false, calling ma_init with nominal heap.
 GA-space will be limited to   8.0 MW (determined by -G option)

 Using customized tuning parameters: mindgm=10; mindgv=16; mindgc=4; mindgr=1; noblas=0; mincuda=1000; minvec=7
 default implementation of scratch files=sf  

 ***,Frequencies for min3
 memory,1000,m
 gthresh,energy=1.0d-10,orbital=1.0d-10,oneint=1.0d-16,twoint=1.0d-16,optgrad=1.0d-6,compress=1.0d-13
 geomtyp=xyz
 
  geometry = {
  12
  arbitrary comment
     C    1.776964391707    0.711398808326   -0.047331391796
     C    0.491811976407   -0.059992870174   -0.196493901896
     C    0.450909202373   -1.536434052255    0.101438343178
     O   -0.560397786049    0.727263257471    0.254463713664
     O   -1.838389048450    0.092364515720   -0.120594095848
     H    2.584857756117    0.211332368814   -0.611257798246
     H    1.659980472282    1.742802168872   -0.426397481247
     H    2.094547143700    0.773936783933    1.017807445260
     H   -0.505522480784   -1.982749824648   -0.220076547287
     H    1.281250312595   -2.047270891597   -0.417051858944
     H    0.561068563387   -1.719201032716    1.194811123046
     H   -1.988524109282    0.550941012841   -0.967065837499
  }
 
 basis=cc-pvdz
 {rhf;maxit,200}
 {uccsd(t);maxit,200}

 Variables initialized (661), CPU time= 0.01 sec
 Commands  initialized (458), CPU time= 0.00 sec, 486 directives.
 Default parameters read. Elapsed time= 0.08 sec

 Checking input...
 Passed
1


                                         ***  PROGRAM SYSTEM MOLPRO  ***
                         Copyright, University College Cardiff Consultants Limited, 2008

                                    Version 2010.1 linked May 16 2016 07:17:05


 **********************************************************************************************************************************
 LABEL *   Frequencies for min3                                                          
 Linux-4.4.3/n021(x86_64) 64 bit mpp version                                             DATE: 07-Mar-20          TIME: 04:14:20  
 **********************************************************************************************************************************

 SHA1:             9e8077add272b0f3cad6f7df79ec5211205f459d
 **********************************************************************************************************************************

 THRESHOLDS:

 ZERO    =  1.00D-12  ONEINT  =  1.00D-16  TWOINT  =  1.00D-16  PREFAC  =  1.00D-14  LOCALI  =  1.00D-09  EORDER  =  1.00D-04
 ENERGY  =  1.00D-10  ETEST   =  0.00D+00  EDENS   =  0.00D+00  THRDEDEF=  1.00D-06  GRADIENT=  1.00D-02  STEP    =  1.00D-03
 ORBITAL =  1.00D-10  CIVEC   =  1.00D-05  COEFF   =  1.00D-04  PRINTCI =  5.00D-02  PUNCHCI =  9.90D+01  OPTGRAD =  1.00D-06
 OPTENERG=  1.00D-06  OPTSTEP =  3.00D-04  THRGRAD =  1.00D-10  COMPRESS=  1.00D-13  VARMIN  =  1.00D-07  VARMAX  =  1.00D-03
 THRDOUB =  0.00D+00  THRDIV  =  1.00D-05  THRRED  =  1.00D-07  THRPSP  =  1.00D+00  THRDC   =  1.00D-10  THRCS   =  1.00D-10
 THRNRM  =  1.00D-08  THREQ   =  0.00D+00  THRDE   =  1.00D+00  THRREF  =  1.00D-05  SPARFAC =  1.00D+00  THRDLP  =  1.00D-07
 THRDIA  =  1.00D-10  THRDLS  =  1.00D-07  THRGPS  =  0.00D+00  THRKEX  =  0.00D+00  THRDIS  =  2.00D-01  THRVAR  =  1.00D-10
 THRLOC  =  1.00D-06  THRGAP  =  1.00D-06  THRLOCT = -1.00D+00  THRGAPT = -1.00D+00  THRORB  =  1.00D-06  THRMLTP =  0.00D+00
 THRCPQCI=  1.00D-10  KEXTA   =  0.00D+00  THRCOARS=  0.00D+00  SYMTOL  =  1.00D-06  GRADTOL =  1.00D-06  THROVL  =  1.00D-08
 THRORTH =  1.00D-08  GRID    =  1.00D-06  GRIDMAX =  1.00D-03  DTMAX   =  0.00D+00

 SETTING GEOMTYP        =    XYZ

 Variable memory set to 1000000000 words,  buffer space   230000 words

 SETTING BASIS          =    CC-PVDZ


 Recomputing integrals since basis changed


 Using spherical harmonics

 Library entry C      S cc-pVDZ              selected for orbital group  1
 Library entry C      P cc-pVDZ              selected for orbital group  1
 Library entry C      D cc-pVDZ              selected for orbital group  1
 Library entry O      S cc-pVDZ              selected for orbital group  2
 Library entry O      P cc-pVDZ              selected for orbital group  2
 Library entry O      D cc-pVDZ              selected for orbital group  2
 Library entry H      S cc-pVDZ              selected for orbital group  3
 Library entry H      P cc-pVDZ              selected for orbital group  3

1PROGRAM * SEWARD (Integral evaluation for generally contracted gaussian basis sets)     Author: Roland Lindh, 1990

 Geometry written to block  1 of record 700


 Point group  C1  



 ATOMIC COORDINATES

 NR  ATOM    CHARGE       X              Y              Z

   1  C       6.00    3.357976046    1.344348918   -0.089443368
   2  C       6.00    0.929389944   -0.113370094   -0.371319661
   3  C       6.00    0.852094903   -2.903439578    0.191690688
   4  O       8.00   -1.058998340    1.374328382    0.480866729
   5  O       8.00   -3.474051825    0.174543639   -0.227889814
   6  H       1.00    4.884673248    0.399360300   -1.155109834
   7  H       1.00    3.136908476    3.293418800   -0.805774463
   8  H       1.00    3.958120471    1.462528565    1.923377326
   9  H       1.00   -0.955299042   -3.746854156   -0.415884402
  10  H       1.00    2.421212197   -3.868781302   -0.788113796
  11  H       1.00    1.060265926   -3.248819117    2.257865801
  12  H       1.00   -3.757765972    1.041127629   -1.827489584

 Bond lengths in Bohr (Angstrom)

 1-2  2.846476668  1-6  2.087930280  1-7  2.088270699  1-8  2.103707895  2-3  2.847357178
     ( 1.506290578)     ( 1.104885118)     ( 1.105065260)     ( 1.113234272)     ( 1.506756524)

  2- 4  2.625482121   3- 9  2.084986454   3-10  2.086631389   3-11  2.105160754   4- 5  2.788243641
       ( 1.389345301)       ( 1.103327312)       ( 1.104197775)       ( 1.114003092)       ( 1.475474988)

  5-12  1.841244403
       ( 0.974344574)

 Bond angles

  1-2-3  120.35726316   1-2-4  108.89480388   2-1-6  109.97017085   2-1-7  110.71306403

  2- 1- 8  111.52545710   2- 3- 9  111.24099628   2- 3-10  109.88071524   2- 3-11  110.61869426

  2- 4- 5  109.24716807   3- 2- 4  118.06666931   4- 5-12   98.72990756   6- 1- 7  108.95069253

  6- 1- 8  107.76849884   7- 1- 8  107.81677462   9- 3-10  109.14085987   9- 3-11  107.77995612

 10- 3-11  108.09570440

 NUCLEAR CHARGE:                   41
 NUMBER OF PRIMITIVE AOS:         184
 NUMBER OF SYMMETRY AOS:          179
 NUMBER OF CONTRACTIONS:          105   ( 105A   )
 NUMBER OF CORE ORBITALS:           5   (   5A   )
 NUMBER OF VALENCE ORBITALS:       27   (  27A   )


 NUCLEAR REPULSION ENERGY  183.21064054


 Eigenvalues of metric

         1 0.345E-02 0.435E-02 0.105E-01 0.141E-01 0.182E-01 0.214E-01 0.331E-01 0.345E-01


 Contracted 2-electron integrals neglected if value below      1.0D-16
 AO integral compression algorithm  1   Integral accuracy      1.0D-16

     127.664 MB (compressed) written to integral file ( 93.2%)

     Node minimum: 32.506 MB, node maximum: 49.807 MB


 NUMBER OF SORTED TWO-ELECTRON INTEGRALS:    5164320.     BUFFER LENGTH:  32768
 NUMBER OF SEGMENTS:   1  SEGMENT LENGTH:    5164320      RECORD LENGTH: 524288

 Memory used in sort:       5.72 MW

 SORT1 READ    17075251. AND WROTE     5135900. INTEGRALS IN     15 RECORDS. CPU TIME:     0.34 SEC, REAL TIME:     0.38 SEC
 SORT2 READ    15396635. AND WROTE    15487395. INTEGRALS IN    570 RECORDS. CPU TIME:     0.11 SEC, REAL TIME:     0.17 SEC

 Node minimum:     5160610.  Node maximum:     5164320. integrals

 OPERATOR DM      FOR CENTER  0  COORDINATES:    0.000000    0.000000    0.000000


 **********************************************************************************************************************************
 DATASETS  * FILE   NREC   LENGTH (MB)   RECORD NAMES
              1      18        3.17       500      610      700      900      950      970     1000      129      960     1100   
                                          VAR    BASINP    GEOM    SYMINP    ZMAT    AOBASIS   BASIS     P2S    ABASIS      S 
                                         1400     1410     1200     1210     1080     1600     1650     1700   
                                           T        V       H0       H01     AOSYM     SMH    MOLCAS    OPER   

 PROGRAMS   *        TOTAL       INT
 CPU TIMES  *         1.52      1.43
 REAL TIME  *         1.84 SEC
 DISK USED  *       314.41 MB      
 GA USED    *         0.00 MB       (max)       0.00 MB       (current)
 **********************************************************************************************************************************

1PROGRAM * RHF-SCF (OPEN SHELL)       Authors: W. Meyer, H.-J. Werner


 NUMBER OF ELECTRONS:      21+   20-    SPACE SYMMETRY=1    SPIN SYMMETRY: Doublet 
 CONVERGENCE THRESHOLDS:    1.00E-10 (Density)    1.00E-11 (Energy)
 MAX. NUMBER OF ITERATIONS:      200
 INTERPOLATION TYPE:            DIIS
 INTERPOLATION STEPS:              2 (START)      1 (STEP)
 LEVEL SHIFTS:                 -0.30 (CLOSED)  0.00 (OPEN) 



 Orbital guess generated from atomic densities. Full valence occupancy:   32

 Molecular orbital dump at record        2100.2

 ITERATION    DDIFF          GRAD             ENERGY        2-EL.EN.            DIPOLE MOMENTS         DIIS
    1      0.000D+00      0.000D+00      -267.17809433    555.797592    0.57167    0.04925   -0.74937    0
    2      0.000D+00      0.617D-02      -267.24880370    555.715219    0.41402   -0.13113   -0.59823    1
    3      0.928D-02      0.214D-02      -267.26101508    555.634392    0.39395   -0.05913   -0.62595    2
    4      0.337D-02      0.913D-03      -267.26464603    555.786526    0.37912   -0.09932   -0.64241    3
    5      0.186D-02      0.364D-03      -267.26522113    555.757931    0.38167   -0.09285   -0.63545    4
    6      0.795D-03      0.111D-03      -267.26529892    555.744265    0.37993   -0.09267   -0.63823    5
    7      0.279D-03      0.516D-04      -267.26531953    555.741214    0.37920   -0.09241   -0.63774    6
    8      0.145D-03      0.275D-04      -267.26532573    555.739287    0.37947   -0.09253   -0.63796    7
    9      0.935D-04      0.116D-04      -267.26532666    555.739593    0.37965   -0.09249   -0.63772    8
   10      0.369D-04      0.507D-05      -267.26532682    555.740214    0.37991   -0.09250   -0.63778    9
   11      0.148D-04      0.198D-05      -267.26532685    555.740052    0.37996   -0.09249   -0.63779    9
   12      0.657D-05      0.676D-06      -267.26532685    555.740187    0.37998   -0.09249   -0.63778    9
   13      0.229D-05      0.228D-06      -267.26532685    555.740102    0.37998   -0.09249   -0.63778    9
   14      0.636D-06      0.767D-07      -267.26532685    555.740111    0.37998   -0.09250   -0.63778    9
   15      0.195D-06      0.305D-07      -267.26532685    555.740107    0.37998   -0.09250   -0.63778    9
   16      0.837D-07      0.148D-07      -267.26532685    555.740109    0.37998   -0.09250   -0.63778    9
   17      0.382D-07      0.764D-08      -267.26532685    555.740109    0.37998   -0.09250   -0.63778    9
   18      0.227D-07      0.347D-08      -267.26532685    555.740109    0.37998   -0.09250   -0.63778    9
   19      0.116D-07      0.135D-08      -267.26532685    555.740109    0.37998   -0.09250   -0.63778    9
   20      0.449D-08      0.580D-09      -267.26532685    555.740109    0.37998   -0.09250   -0.63778    9
   21      0.169D-08      0.293D-09      -267.26532685    555.740109    0.37998   -0.09250   -0.63778    9
   22      0.774D-09      0.165D-09      -267.26532685    555.740109    0.37998   -0.09250   -0.63778    9
   23      0.456D-09      0.814D-10      -267.26532685    555.740109    0.37998   -0.09250   -0.63778    9
   24      0.269D-09      0.325D-10      -267.26532685    555.740109    0.37998   -0.09250   -0.63778    9
   25      0.957D-10      0.133D-10      -267.26532685    555.740109    0.37998   -0.09250   -0.63778    0

 Final alpha occupancy:  21
 Final beta  occupancy:  20

 !RHF STATE 1.1 Energy               -267.265326853564
 Nuclear energy                       183.21064054
 One-electron energy                 -728.34602171
 Two-electron energy                  277.87005431
 Virial quotient                       -1.00155628
 !RHF STATE 1.1 Dipole moment           0.37998382    -0.09249654    -0.63777863
 Dipole moment /Debye                   0.96575929    -0.23508736    -1.62096541

 Orbital energies:

         1.1          2.1          3.1          4.1          5.1          6.1          7.1          8.1          9.1         10.1
    -20.630560   -20.628877   -11.279233   -11.237813   -11.232169    -1.469898    -1.240934    -1.023224    -0.945345    -0.768415

        11.1         12.1         13.1         14.1         15.1         16.1         17.1         18.1         19.1         20.1
     -0.704503    -0.642882    -0.626688    -0.588883    -0.544996    -0.543493    -0.539141    -0.516944    -0.493134    -0.469702

        21.1         22.1         23.1
     -0.352247     0.181271     0.183421


 **********************************************************************************************************************************
 DATASETS  * FILE   NREC   LENGTH (MB)   RECORD NAMES
              1      18        3.17       500      610      700      900      950      970     1000      129      960     1100   
                                          VAR    BASINP    GEOM    SYMINP    ZMAT    AOBASIS   BASIS     P2S    ABASIS      S 
                                         1400     1410     1200     1210     1080     1600     1650     1700   
                                           T        V       H0       H01     AOSYM     SMH    MOLCAS    OPER   

              2       3        0.77       700     1000     2100   
                                         GEOM     BASIS     RHF  

 PROGRAMS   *        TOTAL       RHF       INT
 CPU TIMES  *         3.44      1.92      1.43
 REAL TIME  *         3.94 SEC
 DISK USED  *       330.97 MB      
 SF USED    *         0.04 MB      
 GA USED    *         0.00 MB       (max)       0.00 MB       (current)
 **********************************************************************************************************************************


1PROGRAM * CCSD (Unrestricted open-shell coupled cluster)     Authors: C. Hampel, H.-J. Werner, 1991, M. Deegan, P.J. Knowles, 1992


 Convergence thresholds:  THRVAR = 1.00D-08  THRDEN = 1.00D-10

 CCSD(T)     terms to be evaluated (factor= 1.000)


 Number of core orbitals:           5 (   5 )
 Number of closed-shell orbitals:  15 (  15 )
 Number of active  orbitals:        1 (   1 )
 Number of external orbitals:      84 (  84 )

 Memory could be reduced to 24.91 Mwords without degradation in triples

 Number of N-1 electron functions:              31
 Number of N-2 electron functions:             465
 Number of singly external CSFs:              2635
 Number of doubly external CSFs:           2537250
 Total number of CSFs:                     2539885

 Molecular orbitals read from record     2100.2  Type=RHF/CANONICAL (state 1.1)

 Integral transformation finished. Total CPU:   1.44 sec, npass=  1  Memory used:  12.63 MW

 Starting RMP2 calculation

 ITER.      SQ.NORM     CORR.ENERGY   TOTAL ENERGY   ENERGY CHANGE        DEN1      VAR(S)    VAR(P)  DIIS     TIME
   1      1.24308224    -0.78643211  -268.05175897    -0.78643211    -0.00305088  0.20D-04  0.11D-02  1  1     1.88
   2      1.24572539    -0.78972232  -268.05504918    -0.00329021    -0.00000475  0.54D-06  0.19D-05  2  2     2.25
   3      1.24579104    -0.78976444  -268.05509129    -0.00004211    -0.00000003  0.16D-07  0.68D-08  3  3     2.65
   4      1.24579199    -0.78976444  -268.05509129    -0.00000000    -0.00000000  0.27D-09  0.38D-10  4  4     3.07
   5      1.24579208    -0.78976447  -268.05509133    -0.00000003    -0.00000000  0.25D-11  0.65D-12  5  5     3.53
   6      1.24579209    -0.78976448  -268.05509133    -0.00000001    -0.00000000  0.28D-13  0.87D-14  6  6     4.01
   7      1.24579209    -0.78976448  -268.05509133     0.00000000    -0.00000000  0.47D-15  0.12D-15  6  1     4.49
   8      1.24579209    -0.78976448  -268.05509133     0.00000000    -0.00000000  0.60D-17  0.13D-17  6  2     4.98

 Norm of t1 vector:      0.03893119      S-energy:    -0.00227136      T1 diagnostic:  0.00055037
 Norm of t2 vector:      0.49424331      P-energy:    -0.78749312
                                         Alpha-Beta:  -0.59346108
                                         Alpha-Alpha: -0.10094717
                                         Beta-Beta:   -0.09308486

 Spin contamination <S**2-Sz**2-Sz>     0.00104028
  Reference energy                   -267.265326853566
  RHF-RMP2 correlation energy          -0.789764478959
 !RHF-RMP2 energy                    -268.055091332526

 Starting UCCSD calculation

 ITER.      SQ.NORM     CORR.ENERGY   TOTAL ENERGY   ENERGY CHANGE        DEN1      VAR(S)    VAR(P)  DIIS     TIME
   1      1.26284487    -0.80908436  -268.07441122    -0.80908436    -0.02516529  0.38D-02  0.59D-02  1  1    13.14
   2      1.29163455    -0.83650120  -268.10182805    -0.02741683    -0.00201328  0.22D-03  0.66D-03  2  2    21.28
   3      1.30158771    -0.84100316  -268.10633001    -0.00450196    -0.00032504  0.19D-03  0.56D-04  3  3    29.45
   4      1.30651049    -0.84248220  -268.10780905    -0.00147905    -0.00007223  0.43D-04  0.14D-04  4  4    37.63
   5      1.30924637    -0.84287093  -268.10819778    -0.00038873    -0.00002375  0.19D-04  0.33D-05  5  5    45.85
   6      1.31119232    -0.84307595  -268.10840280    -0.00020502    -0.00000650  0.42D-05  0.12D-05  6  6    54.08
   7      1.31214718    -0.84313499  -268.10846185    -0.00005904    -0.00000210  0.14D-05  0.37D-06  6  2    62.31
   8      1.31259315    -0.84317796  -268.10850482    -0.00004297    -0.00000066  0.45D-06  0.11D-06  6  1    70.57
   9      1.31278105    -0.84318264  -268.10850950    -0.00000468    -0.00000022  0.16D-06  0.35D-07  6  4    78.81
  10      1.31284537    -0.84318562  -268.10851247    -0.00000297    -0.00000005  0.35D-07  0.97D-08  6  3    85.65
  11      1.31287540    -0.84318437  -268.10851122     0.00000125    -0.00000002  0.13D-07  0.28D-08  6  5    92.49
  12      1.31288600    -0.84318412  -268.10851097     0.00000025    -0.00000000  0.26D-08  0.97D-09  6  6    99.30
  13      1.31288487    -0.84318319  -268.10851005     0.00000092    -0.00000000  0.97D-09  0.29D-09  6  2   106.17
  14      1.31287963    -0.84318234  -268.10850920     0.00000085    -0.00000000  0.21D-09  0.68D-10  6  1   112.99
  15      1.31287553    -0.84318175  -268.10850861     0.00000059    -0.00000000  0.79D-10  0.19D-10  6  4   119.85
  16      1.31287232    -0.84318137  -268.10850822     0.00000039    -0.00000000  0.28D-10  0.64D-11  6  3   126.71
  17      1.31287009    -0.84318113  -268.10850798     0.00000024    -0.00000000  0.10D-10  0.24D-11  6  5   133.58
  18      1.31286918    -0.84318106  -268.10850792     0.00000006    -0.00000000  0.42D-11  0.89D-12  6  6   140.44
  19      1.31286856    -0.84318103  -268.10850788     0.00000003    -0.00000000  0.16D-11  0.38D-12  6  2   147.25
  20      1.31286823    -0.84318102  -268.10850787     0.00000001    -0.00000000  0.61D-12  0.13D-12  6  1   154.06
  21      1.31286806    -0.84318101  -268.10850786     0.00000001    -0.00000000  0.29D-12  0.59D-13  6  4   160.89
  22      1.31286794    -0.84318100  -268.10850785     0.00000001    -0.00000000  0.76D-13  0.22D-13  6  3   167.74
  23      1.31286788    -0.84318100  -268.10850785     0.00000000    -0.00000000  0.22D-13  0.64D-14  6  5   174.57
  24      1.31286787    -0.84318100  -268.10850785    -0.00000000    -0.00000000  0.69D-14  0.23D-14  6  6   181.38
  25      1.31286788    -0.84318100  -268.10850785    -0.00000000    -0.00000000  0.22D-14  0.54D-15  6  2   188.20
  26      1.31286788    -0.84318100  -268.10850785    -0.00000000    -0.00000000  0.79D-15  0.16D-15  6  1   195.06
  27      1.31286789    -0.84318100  -268.10850785    -0.00000000    -0.00000000  0.20D-15  0.64D-16  6  3   202.29
  28      1.31286790    -0.84318100  -268.10850785    -0.00000000    -0.00000000  0.31D-16  0.11D-16  6  4   209.10
  29      1.31286790    -0.84318100  -268.10850785    -0.00000000    -0.00000000  0.73D-17  0.30D-17  6  5   215.92
  30      1.31286790    -0.84318100  -268.10850785    -0.00000000    -0.00000000  0.16D-17  0.56D-18  6  6   222.73
  31      1.31286790    -0.84318100  -268.10850785    -0.00000000    -0.00000000  0.37D-18  0.11D-18  6  2   229.58

 Norm of t1 vector:      0.13883069      S-energy:    -0.00282144      T1 diagnostic:  0.01618248
                                                                       D1 diagnostic:  0.06281751
 Norm of t2 vector:      0.54184310      P-energy:    -0.84035956
                                         Alpha-Beta:  -0.66491349
                                         Alpha-Alpha: -0.09147530
                                         Beta-Beta:   -0.08397078

 Spin contamination <S**2-Sz**2-Sz>     0.00218296

 Memory could be reduced to 28.85 Mwords without degradation in triples
 

 RESULTS
 =======

  Reference energy                   -267.265326853566
  UCCSD singles energy                 -0.002821436333
  UCCSD pair energy                    -0.840359563698
  UCCSD correlation energy             -0.843181000032
  Triples (T) contribution             -0.024988229168
  Total correlation energy             -0.868169229200
 
  RHF-UCCSD energy                   -268.108507853598
  RHF-UCCSD[T] energy                -268.134832912193
  RHF-UCCSD-T energy                 -268.133074734399
 !RHF-UCCSD(T) energy                -268.133496082766

 Program statistics:

 Available memory in ccsd:               999997692
 Min. memory needed in ccsd:               7337057
 Max. memory used in ccsd:                10523002
 Max. memory used in cckext:              10867977 (31 integral passes)
 Max. memory used in cckint:              12633073 ( 1 integral passes)



 **********************************************************************************************************************************
 DATASETS  * FILE   NREC   LENGTH (MB)   RECORD NAMES
              1      18        3.17       500      610      700      900      950      970     1000      129      960     1100   
                                          VAR    BASINP    GEOM    SYMINP    ZMAT    AOBASIS   BASIS     P2S    ABASIS      S 
                                         1400     1410     1200     1210     1080     1600     1650     1700   
                                           T        V       H0       H01     AOSYM     SMH    MOLCAS    OPER   

              2       3        0.77       700     1000     2100   
                                         GEOM     BASIS     RHF  

 PROGRAMS   *        TOTAL  UCCSD(T)       RHF       INT
 CPU TIMES  *       294.09    290.65      1.92      1.43
 REAL TIME  *       307.26 SEC
 DISK USED  *         1.30 GB      
 SF USED    *       553.73 MB      
 GA USED    *         0.00 MB       (max)       0.00 MB       (current)
 **********************************************************************************************************************************

        UCCSD(T)        RHF-SCF 
   -268.13349608   -267.26532685
 **********************************************************************************************************************************
 Variable memory released
