
 Primary working directories    : /tmp/320938.315.gen6.q
 Secondary working directories  : /tmp/320938.315.gen6.q
 Wavefunction directory         : /home/vulcan/mel64643/wfu/
 Main file repository           : /tmp/320938.315.gen6.q/

 ARCHNAME  : Linux/x86_64
 FC        : /opt/intel/compilers_and_libraries_2016.1.150/linux/bin/intel64/ifort
 FCVERSION : 16.0.1
 BLASLIB   : -mkl
 id        : ccgc

 Nodes     nprocs
 n085         3
 Number of processes for MPI-2 version of Molpro:   nprocs(total)=    4   nprocs(compute)=    3   nprocs(helper)=    1
 ga_uses_ma=false, calling ma_init with nominal heap.
 GA-space will be limited to   8.0 MW (determined by -G option)

 Using customized tuning parameters: mindgm=10; mindgv=16; mindgc=4; mindgr=1; noblas=0; mincuda=1000; minvec=7
 default implementation of scratch files=sf  

 ***,Frequencies for min3
 memory,1000,m
 gthresh,energy=1.0d-10,orbital=1.0d-10,oneint=1.0d-16,twoint=1.0d-16,optgrad=1.0d-6,compress=1.0d-13
 geomtyp=xyz
 
  geometry = {
  12
  arbitrary comment
     C    1.776964391707    0.711398808326   -0.047331391796
     C    0.491811976407   -0.059992870174   -0.197129665366
     C    0.449754659110   -1.536153902716    0.101588444215
     O   -0.560681619320    0.727217176721    0.254661636875
     O   -1.837616762244    0.092091568378   -0.120521784712
     H    2.585638215327    0.211966630256   -0.610891568346
     H    1.660446418566    1.743241140648   -0.425987103988
     H    2.095111180441    0.774363640994    1.018180170183
     H   -0.504333793449   -1.982752661137   -0.220058905599
     H    1.282464464159   -2.046907342846   -0.416923127472
     H    0.562113742759   -1.719089135513    1.194915580217
     H   -1.987787723474    0.550695827879   -0.966972115703
  }
 
 basis=cc-pvdz
 {rhf;maxit,200}
 {uccsd(t);maxit,200}

 Variables initialized (661), CPU time= 0.00 sec
 Commands  initialized (458), CPU time= 0.01 sec, 486 directives.
 Default parameters read. Elapsed time= 0.05 sec

 Checking input...
 Passed
1


                                         ***  PROGRAM SYSTEM MOLPRO  ***
                         Copyright, University College Cardiff Consultants Limited, 2008

                                    Version 2010.1 linked May 16 2016 07:17:05


 **********************************************************************************************************************************
 LABEL *   Frequencies for min3                                                          
 Linux-4.4.3/n085(x86_64) 64 bit mpp version                                             DATE: 07-Mar-20          TIME: 02:47:35  
 **********************************************************************************************************************************

 SHA1:             9e8077add272b0f3cad6f7df79ec5211205f459d
 **********************************************************************************************************************************

 THRESHOLDS:

 ZERO    =  1.00D-12  ONEINT  =  1.00D-16  TWOINT  =  1.00D-16  PREFAC  =  1.00D-14  LOCALI  =  1.00D-09  EORDER  =  1.00D-04
 ENERGY  =  1.00D-10  ETEST   =  0.00D+00  EDENS   =  0.00D+00  THRDEDEF=  1.00D-06  GRADIENT=  1.00D-02  STEP    =  1.00D-03
 ORBITAL =  1.00D-10  CIVEC   =  1.00D-05  COEFF   =  1.00D-04  PRINTCI =  5.00D-02  PUNCHCI =  9.90D+01  OPTGRAD =  1.00D-06
 OPTENERG=  1.00D-06  OPTSTEP =  3.00D-04  THRGRAD =  1.00D-10  COMPRESS=  1.00D-13  VARMIN  =  1.00D-07  VARMAX  =  1.00D-03
 THRDOUB =  0.00D+00  THRDIV  =  1.00D-05  THRRED  =  1.00D-07  THRPSP  =  1.00D+00  THRDC   =  1.00D-10  THRCS   =  1.00D-10
 THRNRM  =  1.00D-08  THREQ   =  0.00D+00  THRDE   =  1.00D+00  THRREF  =  1.00D-05  SPARFAC =  1.00D+00  THRDLP  =  1.00D-07
 THRDIA  =  1.00D-10  THRDLS  =  1.00D-07  THRGPS  =  0.00D+00  THRKEX  =  0.00D+00  THRDIS  =  2.00D-01  THRVAR  =  1.00D-10
 THRLOC  =  1.00D-06  THRGAP  =  1.00D-06  THRLOCT = -1.00D+00  THRGAPT = -1.00D+00  THRORB  =  1.00D-06  THRMLTP =  0.00D+00
 THRCPQCI=  1.00D-10  KEXTA   =  0.00D+00  THRCOARS=  0.00D+00  SYMTOL  =  1.00D-06  GRADTOL =  1.00D-06  THROVL  =  1.00D-08
 THRORTH =  1.00D-08  GRID    =  1.00D-06  GRIDMAX =  1.00D-03  DTMAX   =  0.00D+00

 SETTING GEOMTYP        =    XYZ

 Variable memory set to 1000000000 words,  buffer space   230000 words

 SETTING BASIS          =    CC-PVDZ


 Recomputing integrals since basis changed


 Using spherical harmonics

 Library entry C      S cc-pVDZ              selected for orbital group  1
 Library entry C      P cc-pVDZ              selected for orbital group  1
 Library entry C      D cc-pVDZ              selected for orbital group  1
 Library entry O      S cc-pVDZ              selected for orbital group  2
 Library entry O      P cc-pVDZ              selected for orbital group  2
 Library entry O      D cc-pVDZ              selected for orbital group  2
 Library entry H      S cc-pVDZ              selected for orbital group  3
 Library entry H      P cc-pVDZ              selected for orbital group  3

1PROGRAM * SEWARD (Integral evaluation for generally contracted gaussian basis sets)     Author: Roland Lindh, 1990

 Geometry written to block  1 of record 700


 Point group  C1  



 ATOMIC COORDINATES

 NR  ATOM    CHARGE       X              Y              Z

   1  C       6.00    3.357976046    1.344348918   -0.089443368
   2  C       6.00    0.929389944   -0.113370094   -0.372521080
   3  C       6.00    0.849913132   -2.902910172    0.191974338
   4  O       8.00   -1.059534707    1.374241302    0.481240750
   5  O       8.00   -3.472592415    0.174027843   -0.227753166
   6  H       1.00    4.886148102    0.400558880   -1.154417760
   7  H       1.00    3.137788987    3.294248337   -0.804998962
   8  H       1.00    3.959186346    1.463335208    1.924081674
   9  H       1.00   -0.953052748   -3.746859516   -0.415851064
  10  H       1.00    2.423506611   -3.868094294   -0.787870529
  11  H       1.00    1.062241029   -3.248607662    2.258063197
  12  H       1.00   -3.756374405    1.040664296   -1.827312475

 Bond lengths in Bohr (Angstrom)

 1-2  2.846595891  1-6  2.088113964  1-7  2.088686164  1-8  2.104731493  2-3  2.847192562
     ( 1.506353669)     ( 1.104982319)     ( 1.105285115)     ( 1.113775937)     ( 1.506669413)

  2- 4  2.626350738   3- 9  2.081438969   3-10  2.089945642   3-11  2.105543413   4- 5  2.786760166
       ( 1.389804953)       ( 1.101450064)       ( 1.105951602)       ( 1.114205587)       ( 1.474689967)

  5-12  1.841244401
       ( 0.974344573)

 Bond angles

  1-2-3  120.38590351   1-2-4  108.88717096   2-1-6  110.01100504   2-1-7  110.73573321

  2- 1- 8  111.57913875   2- 3- 9  111.31753289   2- 3-10  109.78552217   2- 3-11  110.64603940

  2- 4- 5  109.21366693   3- 2- 4  117.99265639   4- 5-12   98.72910066   6- 1- 7  108.92767309

  6- 1- 8  107.72322650   7- 1- 8  107.76280132   9- 3-10  109.14970551   9- 3-11  107.89836816

 10- 3-11  107.95683431

 NUCLEAR CHARGE:                   41
 NUMBER OF PRIMITIVE AOS:         184
 NUMBER OF SYMMETRY AOS:          179
 NUMBER OF CONTRACTIONS:          105   ( 105A   )
 NUMBER OF CORE ORBITALS:           5   (   5A   )
 NUMBER OF VALENCE ORBITALS:       27   (  27A   )


 NUCLEAR REPULSION ENERGY  183.22388001


 Eigenvalues of metric

         1 0.345E-02 0.435E-02 0.105E-01 0.141E-01 0.182E-01 0.214E-01 0.331E-01 0.346E-01


 Contracted 2-electron integrals neglected if value below      1.0D-16
 AO integral compression algorithm  1   Integral accuracy      1.0D-16

     127.402 MB (compressed) written to integral file ( 93.4%)

     Node minimum: 40.632 MB, node maximum: 43.778 MB


 NUMBER OF SORTED TWO-ELECTRON INTEGRALS:    5164320.     BUFFER LENGTH:  32768
 NUMBER OF SEGMENTS:   1  SEGMENT LENGTH:    5164320      RECORD LENGTH: 524288

 Memory used in sort:       5.72 MW

 SORT1 READ    17075251. AND WROTE     5135917. INTEGRALS IN     15 RECORDS. CPU TIME:     0.19 SEC, REAL TIME:     0.23 SEC
 SORT2 READ    15396683. AND WROTE    15487395. INTEGRALS IN    465 RECORDS. CPU TIME:     0.06 SEC, REAL TIME:     0.09 SEC

 Node minimum:     5160610.  Node maximum:     5164320. integrals

 OPERATOR DM      FOR CENTER  0  COORDINATES:    0.000000    0.000000    0.000000


 **********************************************************************************************************************************
 DATASETS  * FILE   NREC   LENGTH (MB)   RECORD NAMES
              1      18        3.17       500      610      700      900      950      970     1000      129      960     1100   
                                          VAR    BASINP    GEOM    SYMINP    ZMAT    AOBASIS   BASIS     P2S    ABASIS      S 
                                         1400     1410     1200     1210     1080     1600     1650     1700   
                                           T        V       H0       H01     AOSYM     SMH    MOLCAS    OPER   

 PROGRAMS   *        TOTAL       INT
 CPU TIMES  *         0.83      0.78
 REAL TIME  *         1.20 SEC
 DISK USED  *       305.79 MB      
 GA USED    *         0.00 MB       (max)       0.00 MB       (current)
 **********************************************************************************************************************************

1PROGRAM * RHF-SCF (OPEN SHELL)       Authors: W. Meyer, H.-J. Werner


 NUMBER OF ELECTRONS:      21+   20-    SPACE SYMMETRY=1    SPIN SYMMETRY: Doublet 
 CONVERGENCE THRESHOLDS:    1.00E-10 (Density)    1.00E-11 (Energy)
 MAX. NUMBER OF ITERATIONS:      200
 INTERPOLATION TYPE:            DIIS
 INTERPOLATION STEPS:              2 (START)      1 (STEP)
 LEVEL SHIFTS:                 -0.30 (CLOSED)  0.00 (OPEN) 



 Orbital guess generated from atomic densities. Full valence occupancy:   32

 Molecular orbital dump at record        2100.2

 ITERATION    DDIFF          GRAD             ENERGY        2-EL.EN.            DIPOLE MOMENTS         DIIS
    1      0.000D+00      0.000D+00      -267.17824651    555.820926    0.57147    0.05017   -0.74899    0
    2      0.000D+00      0.617D-02      -267.24893419    555.743023    0.41468   -0.13094   -0.59856    1
    3      0.927D-02      0.214D-02      -267.26110670    555.660897    0.39430   -0.05909   -0.62604    2
    4      0.336D-02      0.912D-03      -267.26471051    555.813035    0.37960   -0.09929   -0.64247    3
    5      0.186D-02      0.363D-03      -267.26527793    555.784371    0.38209   -0.09281   -0.63544    4
    6      0.792D-03      0.110D-03      -267.26535390    555.770619    0.38035   -0.09261   -0.63817    5
    7      0.276D-03      0.510D-04      -267.26537390    555.767602    0.37963   -0.09236   -0.63766    6
    8      0.143D-03      0.272D-04      -267.26537992    555.765661    0.37991   -0.09247   -0.63787    7
    9      0.920D-04      0.115D-04      -267.26538083    555.765967    0.38010   -0.09243   -0.63762    8
   10      0.365D-04      0.500D-05      -267.26538099    555.766581    0.38036   -0.09244   -0.63769    9
   11      0.146D-04      0.196D-05      -267.26538102    555.766423    0.38041   -0.09244   -0.63769    9
   12      0.649D-05      0.669D-06      -267.26538102    555.766557    0.38043   -0.09244   -0.63769    9
   13      0.227D-05      0.226D-06      -267.26538102    555.766473    0.38043   -0.09244   -0.63769    9
   14      0.630D-06      0.755D-07      -267.26538102    555.766482    0.38043   -0.09244   -0.63769    9
   15      0.192D-06      0.299D-07      -267.26538102    555.766478    0.38043   -0.09244   -0.63769    9
   16      0.820D-07      0.144D-07      -267.26538102    555.766479    0.38043   -0.09244   -0.63769    9
   17      0.372D-07      0.746D-08      -267.26538102    555.766479    0.38043   -0.09244   -0.63769    9
   18      0.221D-07      0.340D-08      -267.26538102    555.766479    0.38043   -0.09244   -0.63769    9
   19      0.114D-07      0.133D-08      -267.26538102    555.766479    0.38043   -0.09244   -0.63769    9
   20      0.442D-08      0.563D-09      -267.26538102    555.766479    0.38043   -0.09244   -0.63769    9
   21      0.164D-08      0.285D-09      -267.26538102    555.766479    0.38043   -0.09244   -0.63769    9
   22      0.749D-09      0.161D-09      -267.26538102    555.766479    0.38043   -0.09244   -0.63769    9
   23      0.444D-09      0.792D-10      -267.26538102    555.766479    0.38043   -0.09244   -0.63769    9
   24      0.262D-09      0.315D-10      -267.26538102    555.766479    0.38043   -0.09244   -0.63769    9
   25      0.927D-10      0.128D-10      -267.26538102    555.766479    0.38043   -0.09244   -0.63769    0

 Final alpha occupancy:  21
 Final beta  occupancy:  20

 !RHF STATE 1.1 Energy               -267.265381019803
 Nuclear energy                       183.22388001
 One-electron energy                 -728.37250068
 Two-electron energy                  277.88323965
 Virial quotient                       -1.00155791
 !RHF STATE 1.1 Dipole moment           0.38043216    -0.09243897    -0.63768730
 Dipole moment /Debye                   0.96689878    -0.23494105    -1.62073329

 Orbital energies:

         1.1          2.1          3.1          4.1          5.1          6.1          7.1          8.1          9.1         10.1
    -20.630458   -20.628784   -11.279358   -11.237935   -11.232195    -1.470139    -1.240671    -1.023201    -0.945347    -0.768449

        11.1         12.1         13.1         14.1         15.1         16.1         17.1         18.1         19.1         20.1
     -0.704567    -0.643063    -0.626736    -0.588684    -0.545228    -0.543288    -0.538927    -0.516918    -0.492983    -0.469813

        21.1         22.1         23.1
     -0.352536     0.181301     0.183557


 **********************************************************************************************************************************
 DATASETS  * FILE   NREC   LENGTH (MB)   RECORD NAMES
              1      18        3.17       500      610      700      900      950      970     1000      129      960     1100   
                                          VAR    BASINP    GEOM    SYMINP    ZMAT    AOBASIS   BASIS     P2S    ABASIS      S 
                                         1400     1410     1200     1210     1080     1600     1650     1700   
                                           T        V       H0       H01     AOSYM     SMH    MOLCAS    OPER   

              2       3        0.77       700     1000     2100   
                                         GEOM     BASIS     RHF  

 PROGRAMS   *        TOTAL       RHF       INT
 CPU TIMES  *         1.78      0.95      0.78
 REAL TIME  *         2.28 SEC
 DISK USED  *       322.36 MB      
 SF USED    *         0.04 MB      
 GA USED    *         0.00 MB       (max)       0.00 MB       (current)
 **********************************************************************************************************************************


1PROGRAM * CCSD (Unrestricted open-shell coupled cluster)     Authors: C. Hampel, H.-J. Werner, 1991, M. Deegan, P.J. Knowles, 1992


 Convergence thresholds:  THRVAR = 1.00D-08  THRDEN = 1.00D-10

 CCSD(T)     terms to be evaluated (factor= 1.000)


 Number of core orbitals:           5 (   5 )
 Number of closed-shell orbitals:  15 (  15 )
 Number of active  orbitals:        1 (   1 )
 Number of external orbitals:      84 (  84 )

 Memory could be reduced to 24.91 Mwords without degradation in triples

 Number of N-1 electron functions:              31
 Number of N-2 electron functions:             465
 Number of singly external CSFs:              2635
 Number of doubly external CSFs:           2537250
 Total number of CSFs:                     2539885

 Molecular orbitals read from record     2100.2  Type=RHF/CANONICAL (state 1.1)

 Integral transformation finished. Total CPU:   0.92 sec, npass=  1  Memory used:  12.63 MW

 Starting RMP2 calculation

 ITER.      SQ.NORM     CORR.ENERGY   TOTAL ENERGY   ENERGY CHANGE        DEN1      VAR(S)    VAR(P)  DIIS     TIME
   1      1.24304110    -0.78638111  -268.05176213    -0.78638111    -0.00305034  0.20D-04  0.11D-02  1  1     1.24
   2      1.24568316    -0.78967072  -268.05505174    -0.00328961    -0.00000475  0.54D-06  0.19D-05  2  2     1.51
   3      1.24574874    -0.78971281  -268.05509383    -0.00004208    -0.00000003  0.16D-07  0.68D-08  3  3     1.81
   4      1.24574969    -0.78971281  -268.05509383    -0.00000000    -0.00000000  0.27D-09  0.38D-10  4  4     2.13
   5      1.24574978    -0.78971284  -268.05509386    -0.00000003    -0.00000000  0.25D-11  0.66D-12  5  5     2.46
   6      1.24574979    -0.78971285  -268.05509387    -0.00000001    -0.00000000  0.28D-13  0.87D-14  6  6     2.82
   7      1.24574979    -0.78971285  -268.05509387     0.00000000    -0.00000000  0.47D-15  0.12D-15  6  1     3.18
   8      1.24574979    -0.78971285  -268.05509387     0.00000000    -0.00000000  0.60D-17  0.13D-17  6  2     3.55

 Norm of t1 vector:      0.03891381      S-energy:    -0.00226942      T1 diagnostic:  0.00055053
 Norm of t2 vector:      0.49420189      P-energy:    -0.78744343
                                         Alpha-Beta:  -0.59342465
                                         Alpha-Alpha: -0.10093946
                                         Beta-Beta:   -0.09307931

 Spin contamination <S**2-Sz**2-Sz>     0.00103974
  Reference energy                   -267.265381019802
  RHF-RMP2 correlation energy          -0.789712847970
 !RHF-RMP2 energy                    -268.055093867772

 Starting UCCSD calculation

 ITER.      SQ.NORM     CORR.ENERGY   TOTAL ENERGY   ENERGY CHANGE        DEN1      VAR(S)    VAR(P)  DIIS     TIME
   1      1.26281660    -0.80905108  -268.07443210    -0.80905108    -0.02515928  0.38D-02  0.59D-02  1  1     8.58
   2      1.29159673    -0.83646363  -268.10184465    -0.02741255    -0.00201173  0.22D-03  0.66D-03  2  2    13.32
   3      1.30154121    -0.84096296  -268.10634398    -0.00449933    -0.00032475  0.19D-03  0.56D-04  3  3    18.09
   4      1.30645597    -0.84244061  -268.10782163    -0.00147765    -0.00007210  0.43D-04  0.14D-04  4  4    22.88
   5      1.30918626    -0.84282885  -268.10820987    -0.00038824    -0.00002366  0.19D-04  0.32D-05  5  5    27.69
   6      1.31112480    -0.84303333  -268.10841435    -0.00020448    -0.00000645  0.42D-05  0.12D-05  6  6    34.04
   7      1.31207277    -0.84309204  -268.10847306    -0.00005871    -0.00000207  0.14D-05  0.37D-06  6  2    40.52
   8      1.31251303    -0.84313465  -268.10851567    -0.00004261    -0.00000065  0.44D-06  0.11D-06  6  1    47.18
   9      1.31269721    -0.84313920  -268.10852022    -0.00000455    -0.00000022  0.15D-06  0.35D-07  6  4    53.97
  10      1.31275996    -0.84314211  -268.10852313    -0.00000292    -0.00000005  0.34D-07  0.95D-08  6  3    60.73
  11      1.31278930    -0.84314085  -268.10852187     0.00000127    -0.00000002  0.13D-07  0.28D-08  6  5    67.06
  12      1.31279960    -0.84314058  -268.10852160     0.00000026    -0.00000000  0.26D-08  0.95D-09  6  6    73.40
  13      1.31279846    -0.84313967  -268.10852069     0.00000091    -0.00000000  0.96D-09  0.28D-09  6  2    79.78
  14      1.31279326    -0.84313883  -268.10851985     0.00000084    -0.00000000  0.21D-09  0.67D-10  6  1    86.11
  15      1.31278920    -0.84313825  -268.10851927     0.00000058    -0.00000000  0.78D-10  0.19D-10  6  4    92.47
  16      1.31278601    -0.84313786  -268.10851888     0.00000038    -0.00000000  0.28D-10  0.63D-11  6  3    98.83
  17      1.31278382    -0.84313762  -268.10851864     0.00000024    -0.00000000  0.10D-10  0.24D-11  6  5   105.10
  18      1.31278292    -0.84313756  -268.10851858     0.00000006    -0.00000000  0.40D-11  0.86D-12  6  6   111.43
  19      1.31278231    -0.84313753  -268.10851855     0.00000003    -0.00000000  0.16D-11  0.37D-12  6  2   117.73
  20      1.31278199    -0.84313752  -268.10851854     0.00000001    -0.00000000  0.59D-12  0.13D-12  6  1   124.03
  21      1.31278183    -0.84313751  -268.10851853     0.00000001    -0.00000000  0.28D-12  0.57D-13  6  4   130.35
  22      1.31278171    -0.84313750  -268.10851852     0.00000001    -0.00000000  0.73D-13  0.21D-13  6  3   136.63
  23      1.31278165    -0.84313750  -268.10851852     0.00000000    -0.00000000  0.21D-13  0.62D-14  6  5   142.86
  24      1.31278165    -0.84313750  -268.10851852    -0.00000000    -0.00000000  0.67D-14  0.22D-14  6  6   149.16
  25      1.31278165    -0.84313750  -268.10851852    -0.00000000    -0.00000000  0.21D-14  0.52D-15  6  2   155.48
  26      1.31278166    -0.84313750  -268.10851852    -0.00000000    -0.00000000  0.76D-15  0.15D-15  6  1   161.79
  27      1.31278167    -0.84313750  -268.10851852    -0.00000000    -0.00000000  0.20D-15  0.62D-16  6  3   168.10
  28      1.31278167    -0.84313750  -268.10851852    -0.00000000    -0.00000000  0.29D-16  0.11D-16  6  4   174.41
  29      1.31278167    -0.84313750  -268.10851852    -0.00000000    -0.00000000  0.70D-17  0.29D-17  6  5   180.68
  30      1.31278168    -0.84313750  -268.10851852    -0.00000000    -0.00000000  0.15D-17  0.54D-18  6  6   186.46
  31      1.31278168    -0.84313750  -268.10851852    -0.00000000    -0.00000000  0.35D-18  0.10D-18  6  2   192.24

 Norm of t1 vector:      0.13870591      S-energy:    -0.00281858      T1 diagnostic:  0.01616942
                                                                       D1 diagnostic:  0.06285351
 Norm of t2 vector:      0.54179548      P-energy:    -0.84031892
                                         Alpha-Beta:  -0.66487779
                                         Alpha-Alpha: -0.09147139
                                         Beta-Beta:   -0.08396974

 Spin contamination <S**2-Sz**2-Sz>     0.00216763

 Memory could be reduced to 28.85 Mwords without degradation in triples
 

 RESULTS
 =======

  Reference energy                   -267.265381019802
  UCCSD singles energy                 -0.002818579855
  UCCSD pair energy                    -0.840318920688
  UCCSD correlation energy             -0.843137500543
  Triples (T) contribution             -0.024977917673
  Total correlation energy             -0.868115418216
 
  RHF-UCCSD energy                   -268.108518520345
  RHF-UCCSD[T] energy                -268.134832802111
  RHF-UCCSD-T energy                 -268.133074692767
 !RHF-UCCSD(T) energy                -268.133496438019

 Program statistics:

 Available memory in ccsd:               999997692
 Min. memory needed in ccsd:               7337057
 Max. memory used in ccsd:                10523002
 Max. memory used in cckext:              10867977 (31 integral passes)
 Max. memory used in cckint:              12633073 ( 1 integral passes)



 **********************************************************************************************************************************
 DATASETS  * FILE   NREC   LENGTH (MB)   RECORD NAMES
              1      18        3.17       500      610      700      900      950      970     1000      129      960     1100   
                                          VAR    BASINP    GEOM    SYMINP    ZMAT    AOBASIS   BASIS     P2S    ABASIS      S 
                                         1400     1410     1200     1210     1080     1600     1650     1700   
                                           T        V       H0       H01     AOSYM     SMH    MOLCAS    OPER   

              2       3        0.77       700     1000     2100   
                                         GEOM     BASIS     RHF  

 PROGRAMS   *        TOTAL  UCCSD(T)       RHF       INT
 CPU TIMES  *       236.80    235.02      0.95      0.78
 REAL TIME  *       247.17 SEC
 DISK USED  *         1.29 GB      
 SF USED    *       553.73 MB      
 GA USED    *         0.00 MB       (max)       0.00 MB       (current)
 **********************************************************************************************************************************

        UCCSD(T)        RHF-SCF 
   -268.13349644   -267.26538102
 **********************************************************************************************************************************
 Variable memory released
