
 Primary working directories    : /tmp/320938.751.gen6.q
 Secondary working directories  : /tmp/320938.751.gen6.q
 Wavefunction directory         : /home/vulcan/mel64643/wfu/
 Main file repository           : /tmp/320938.751.gen6.q/

 ARCHNAME  : Linux/x86_64
 FC        : /opt/intel/compilers_and_libraries_2016.1.150/linux/bin/intel64/ifort
 FCVERSION : 16.0.1
 BLASLIB   : -mkl
 id        : ccgc

 Nodes     nprocs
 n078         3
 Number of processes for MPI-2 version of Molpro:   nprocs(total)=    4   nprocs(compute)=    3   nprocs(helper)=    1
 ga_uses_ma=false, calling ma_init with nominal heap.
 GA-space will be limited to   8.0 MW (determined by -G option)

 Using customized tuning parameters: mindgm=10; mindgv=16; mindgc=4; mindgr=1; noblas=0; mincuda=1000; minvec=7
 default implementation of scratch files=sf  

 ***,Frequencies for min3
 memory,1000,m
 gthresh,energy=1.0d-10,orbital=1.0d-10,oneint=1.0d-16,twoint=1.0d-16,optgrad=1.0d-6,compress=1.0d-13
 geomtyp=xyz
 
  geometry = {
  12
  arbitrary comment
     C    1.776964391707    0.711398808326   -0.047331391796
     C    0.491811976407   -0.059992870174   -0.196493901896
     C    0.450332819107   -1.536294019674    0.101417522804
     O   -0.560767745493    0.727234937526    0.254453964104
     O   -1.837840335593    0.092269037726   -0.120531795196
     H    2.585373063107    0.211465914126   -0.611440883996
     H    1.658334331693    1.742524961248   -0.426584359339
     H    2.095946692466    0.773657764024    1.017702020818
     H   -0.504742422036   -1.982496457426   -0.220066459788
     H    1.280315164272   -2.046180932573   -0.416708936641
     H    0.562666938174   -1.719711566486    1.194792388930
     H   -1.986210159227    0.550828321769   -0.967510844253
  }
 
 basis=cc-pvdz
 {rhf;maxit,200}
 {uccsd(t);maxit,200}

 Variables initialized (661), CPU time= 0.00 sec
 Commands  initialized (458), CPU time= 0.01 sec, 486 directives.
 Default parameters read. Elapsed time= 0.05 sec

 Checking input...
 Passed
1


                                         ***  PROGRAM SYSTEM MOLPRO  ***
                         Copyright, University College Cardiff Consultants Limited, 2008

                                    Version 2010.1 linked May 16 2016 07:17:05


 **********************************************************************************************************************************
 LABEL *   Frequencies for min3                                                          
 Linux-4.4.3/n078(x86_64) 64 bit mpp version                                             DATE: 07-Mar-20          TIME: 05:23:35  
 **********************************************************************************************************************************

 SHA1:             9e8077add272b0f3cad6f7df79ec5211205f459d
 **********************************************************************************************************************************

 THRESHOLDS:

 ZERO    =  1.00D-12  ONEINT  =  1.00D-16  TWOINT  =  1.00D-16  PREFAC  =  1.00D-14  LOCALI  =  1.00D-09  EORDER  =  1.00D-04
 ENERGY  =  1.00D-10  ETEST   =  0.00D+00  EDENS   =  0.00D+00  THRDEDEF=  1.00D-06  GRADIENT=  1.00D-02  STEP    =  1.00D-03
 ORBITAL =  1.00D-10  CIVEC   =  1.00D-05  COEFF   =  1.00D-04  PRINTCI =  5.00D-02  PUNCHCI =  9.90D+01  OPTGRAD =  1.00D-06
 OPTENERG=  1.00D-06  OPTSTEP =  3.00D-04  THRGRAD =  1.00D-10  COMPRESS=  1.00D-13  VARMIN  =  1.00D-07  VARMAX  =  1.00D-03
 THRDOUB =  0.00D+00  THRDIV  =  1.00D-05  THRRED  =  1.00D-07  THRPSP  =  1.00D+00  THRDC   =  1.00D-10  THRCS   =  1.00D-10
 THRNRM  =  1.00D-08  THREQ   =  0.00D+00  THRDE   =  1.00D+00  THRREF  =  1.00D-05  SPARFAC =  1.00D+00  THRDLP  =  1.00D-07
 THRDIA  =  1.00D-10  THRDLS  =  1.00D-07  THRGPS  =  0.00D+00  THRKEX  =  0.00D+00  THRDIS  =  2.00D-01  THRVAR  =  1.00D-10
 THRLOC  =  1.00D-06  THRGAP  =  1.00D-06  THRLOCT = -1.00D+00  THRGAPT = -1.00D+00  THRORB  =  1.00D-06  THRMLTP =  0.00D+00
 THRCPQCI=  1.00D-10  KEXTA   =  0.00D+00  THRCOARS=  0.00D+00  SYMTOL  =  1.00D-06  GRADTOL =  1.00D-06  THROVL  =  1.00D-08
 THRORTH =  1.00D-08  GRID    =  1.00D-06  GRIDMAX =  1.00D-03  DTMAX   =  0.00D+00

 SETTING GEOMTYP        =    XYZ

 Variable memory set to 1000000000 words,  buffer space   230000 words

 SETTING BASIS          =    CC-PVDZ


 Recomputing integrals since basis changed


 Using spherical harmonics

 Library entry C      S cc-pVDZ              selected for orbital group  1
 Library entry C      P cc-pVDZ              selected for orbital group  1
 Library entry C      D cc-pVDZ              selected for orbital group  1
 Library entry O      S cc-pVDZ              selected for orbital group  2
 Library entry O      P cc-pVDZ              selected for orbital group  2
 Library entry O      D cc-pVDZ              selected for orbital group  2
 Library entry H      S cc-pVDZ              selected for orbital group  3
 Library entry H      P cc-pVDZ              selected for orbital group  3

1PROGRAM * SEWARD (Integral evaluation for generally contracted gaussian basis sets)     Author: Roland Lindh, 1990

 Geometry written to block  1 of record 700


 Point group  C1  



 ATOMIC COORDINATES

 NR  ATOM    CHARGE       X              Y              Z

   1  C       6.00    3.357976046    1.344348918   -0.089443368
   2  C       6.00    0.929389944   -0.113370094   -0.371319661
   3  C       6.00    0.851005696   -2.903174955    0.191651343
   4  O       8.00   -1.059697462    1.374274865    0.480848305
   5  O       8.00   -3.473014908    0.174363212   -0.227772083
   6  H       1.00    4.885647037    0.399612664   -1.155455816
   7  H       1.00    3.133797721    3.292894954   -0.806127611
   8  H       1.00    3.960765235    1.462001293    1.923178103
   9  H       1.00   -0.953824945   -3.746375361   -0.415865340
  10  H       1.00    2.419445022   -3.866721578   -0.787465767
  11  H       1.00    1.063286416   -3.249783886    2.257830399
  12  H       1.00   -3.753393240    1.040914674   -1.828330525

 Bond lengths in Bohr (Angstrom)

 1-2  2.846476668  1-6  2.088704811  1-7  2.088234632  1-8  2.104243824  2-3  2.847119878
     ( 1.506290578)     ( 1.105294982)     ( 1.105046174)     ( 1.113517874)     ( 1.506630951)

  2- 4  2.625975338   3- 9  2.082661059   3-10  2.084968664   3-11  2.105776994   4- 5  2.786760112
       ( 1.389606300)       ( 1.102096767)       ( 1.103317899)       ( 1.114329192)       ( 1.474689938)

  5-12  1.841551186
       ( 0.974506917)

 Bond angles

  1-2-3  120.37866573   1-2-4  108.90555081   2-1-6  109.98947225   2-1-7  110.62671485

  2- 1- 8  111.57727728   2- 3- 9  111.27813207   2- 3-10  109.83232290   2- 3-11  110.64185884

  2- 4- 5  109.23946113   3- 2- 4  118.03986083   4- 5-12   98.64105186   6- 1- 7  108.99035852

  6- 1- 8  107.69312127   7- 1- 8  107.86879876   9- 3-10  109.13633349   9- 3-11  107.87472599

 10- 3-11  107.99142877

 NUCLEAR CHARGE:                   41
 NUMBER OF PRIMITIVE AOS:         184
 NUMBER OF SYMMETRY AOS:          179
 NUMBER OF CONTRACTIONS:          105   ( 105A   )
 NUMBER OF CORE ORBITALS:           5   (   5A   )
 NUMBER OF VALENCE ORBITALS:       27   (  27A   )


 NUCLEAR REPULSION ENERGY  183.23455805


 Eigenvalues of metric

         1 0.345E-02 0.435E-02 0.105E-01 0.141E-01 0.182E-01 0.214E-01 0.331E-01 0.346E-01


 Contracted 2-electron integrals neglected if value below      1.0D-16
 AO integral compression algorithm  1   Integral accuracy      1.0D-16

     127.402 MB (compressed) written to integral file ( 93.4%)

     Node minimum: 40.632 MB, node maximum: 43.516 MB


 NUMBER OF SORTED TWO-ELECTRON INTEGRALS:    5164320.     BUFFER LENGTH:  32768
 NUMBER OF SEGMENTS:   1  SEGMENT LENGTH:    5164320      RECORD LENGTH: 524288

 Memory used in sort:       5.72 MW

 SORT1 READ    17075629. AND WROTE     5135959. INTEGRALS IN     15 RECORDS. CPU TIME:     0.19 SEC, REAL TIME:     0.22 SEC
 SORT2 READ    15396784. AND WROTE    15487395. INTEGRALS IN    465 RECORDS. CPU TIME:     0.06 SEC, REAL TIME:     0.09 SEC

 Node minimum:     5160610.  Node maximum:     5164320. integrals

 OPERATOR DM      FOR CENTER  0  COORDINATES:    0.000000    0.000000    0.000000


 **********************************************************************************************************************************
 DATASETS  * FILE   NREC   LENGTH (MB)   RECORD NAMES
              1      18        3.17       500      610      700      900      950      970     1000      129      960     1100   
                                          VAR    BASINP    GEOM    SYMINP    ZMAT    AOBASIS   BASIS     P2S    ABASIS      S 
                                         1400     1410     1200     1210     1080     1600     1650     1700   
                                           T        V       H0       H01     AOSYM     SMH    MOLCAS    OPER   

 PROGRAMS   *        TOTAL       INT
 CPU TIMES  *         0.82      0.77
 REAL TIME  *         1.19 SEC
 DISK USED  *       305.80 MB      
 GA USED    *         0.00 MB       (max)       0.00 MB       (current)
 **********************************************************************************************************************************

1PROGRAM * RHF-SCF (OPEN SHELL)       Authors: W. Meyer, H.-J. Werner


 NUMBER OF ELECTRONS:      21+   20-    SPACE SYMMETRY=1    SPIN SYMMETRY: Doublet 
 CONVERGENCE THRESHOLDS:    1.00E-10 (Density)    1.00E-11 (Energy)
 MAX. NUMBER OF ITERATIONS:      200
 INTERPOLATION TYPE:            DIIS
 INTERPOLATION STEPS:              2 (START)      1 (STEP)
 LEVEL SHIFTS:                 -0.30 (CLOSED)  0.00 (OPEN) 



 Orbital guess generated from atomic densities. Full valence occupancy:   32

 Molecular orbital dump at record        2100.2

 ITERATION    DDIFF          GRAD             ENERGY        2-EL.EN.            DIPOLE MOMENTS         DIIS
    1      0.000D+00      0.000D+00      -267.17823897    555.839106    0.57070    0.04988   -0.74929    0
    2      0.000D+00      0.617D-02      -267.24893957    555.762541    0.41504   -0.13156   -0.59899    1
    3      0.928D-02      0.214D-02      -267.26111457    555.679955    0.39485   -0.05967   -0.62650    2
    4      0.336D-02      0.912D-03      -267.26472265    555.832515    0.38034   -0.09995   -0.64299    3
    5      0.186D-02      0.364D-03      -267.26529178    555.803954    0.38293   -0.09350   -0.63599    4
    6      0.792D-03      0.110D-03      -267.26536821    555.790175    0.38122   -0.09332   -0.63874    5
    7      0.277D-03      0.512D-04      -267.26538837    555.787178    0.38052   -0.09307   -0.63823    6
    8      0.144D-03      0.273D-04      -267.26539444    555.785227    0.38080   -0.09318   -0.63845    7
    9      0.925D-04      0.115D-04      -267.26539536    555.785541    0.38098   -0.09314   -0.63820    8
   10      0.366D-04      0.501D-05      -267.26539552    555.786154    0.38124   -0.09315   -0.63827    9
   11      0.147D-04      0.196D-05      -267.26539555    555.785995    0.38129   -0.09315   -0.63827    9
   12      0.650D-05      0.670D-06      -267.26539555    555.786130    0.38131   -0.09315   -0.63827    9
   13      0.227D-05      0.226D-06      -267.26539555    555.786046    0.38131   -0.09315   -0.63826    9
   14      0.631D-06      0.756D-07      -267.26539555    555.786054    0.38131   -0.09315   -0.63827    9
   15      0.192D-06      0.299D-07      -267.26539555    555.786050    0.38132   -0.09315   -0.63826    9
   16      0.821D-07      0.144D-07      -267.26539555    555.786052    0.38132   -0.09315   -0.63826    9
   17      0.372D-07      0.747D-08      -267.26539555    555.786052    0.38132   -0.09315   -0.63826    9
   18      0.221D-07      0.341D-08      -267.26539555    555.786052    0.38132   -0.09315   -0.63826    9
   19      0.114D-07      0.133D-08      -267.26539555    555.786052    0.38132   -0.09315   -0.63826    9
   20      0.443D-08      0.565D-09      -267.26539555    555.786052    0.38132   -0.09315   -0.63826    9
   21      0.165D-08      0.285D-09      -267.26539555    555.786052    0.38132   -0.09315   -0.63826    9
   22      0.751D-09      0.161D-09      -267.26539555    555.786052    0.38132   -0.09315   -0.63826    9
   23      0.444D-09      0.792D-10      -267.26539555    555.786052    0.38132   -0.09315   -0.63826    9
   24      0.262D-09      0.315D-10      -267.26539555    555.786052    0.38132   -0.09315   -0.63826    9
   25      0.927D-10      0.129D-10      -267.26539555    555.786052    0.38132   -0.09315   -0.63826    0

 Final alpha occupancy:  21
 Final beta  occupancy:  20

 !RHF STATE 1.1 Energy               -267.265395549554
 Nuclear energy                       183.23455805
 One-electron energy                 -728.39297966
 Two-electron energy                  277.89302606
 Virial quotient                       -1.00154615
 !RHF STATE 1.1 Dipole moment           0.38131651    -0.09315141    -0.63826484
 Dipole moment /Debye                   0.96914642    -0.23675176    -1.62220116

 Orbital energies:

         1.1          2.1          3.1          4.1          5.1          6.1          7.1          8.1          9.1         10.1
    -20.630443   -20.628866   -11.279248   -11.237905   -11.231973    -1.470202    -1.240691    -1.023278    -0.945435    -0.768460

        11.1         12.1         13.1         14.1         15.1         16.1         17.1         18.1         19.1         20.1
     -0.704629    -0.642980    -0.626760    -0.588931    -0.545130    -0.543625    -0.538951    -0.516957    -0.493066    -0.469773

        21.1         22.1         23.1
     -0.352320     0.181297     0.183579


 **********************************************************************************************************************************
 DATASETS  * FILE   NREC   LENGTH (MB)   RECORD NAMES
              1      18        3.17       500      610      700      900      950      970     1000      129      960     1100   
                                          VAR    BASINP    GEOM    SYMINP    ZMAT    AOBASIS   BASIS     P2S    ABASIS      S 
                                         1400     1410     1200     1210     1080     1600     1650     1700   
                                           T        V       H0       H01     AOSYM     SMH    MOLCAS    OPER   

              2       3        0.77       700     1000     2100   
                                         GEOM     BASIS     RHF  

 PROGRAMS   *        TOTAL       RHF       INT
 CPU TIMES  *         1.70      0.88      0.77
 REAL TIME  *         2.20 SEC
 DISK USED  *       322.36 MB      
 SF USED    *         0.04 MB      
 GA USED    *         0.00 MB       (max)       0.00 MB       (current)
 **********************************************************************************************************************************


1PROGRAM * CCSD (Unrestricted open-shell coupled cluster)     Authors: C. Hampel, H.-J. Werner, 1991, M. Deegan, P.J. Knowles, 1992


 Convergence thresholds:  THRVAR = 1.00D-08  THRDEN = 1.00D-10

 CCSD(T)     terms to be evaluated (factor= 1.000)


 Number of core orbitals:           5 (   5 )
 Number of closed-shell orbitals:  15 (  15 )
 Number of active  orbitals:        1 (   1 )
 Number of external orbitals:      84 (  84 )

 Memory could be reduced to 24.91 Mwords without degradation in triples

 Number of N-1 electron functions:              31
 Number of N-2 electron functions:             465
 Number of singly external CSFs:              2635
 Number of doubly external CSFs:           2537250
 Total number of CSFs:                     2539885

 Molecular orbitals read from record     2100.2  Type=RHF/CANONICAL (state 1.1)

 Integral transformation finished. Total CPU:   0.68 sec, npass=  1  Memory used:  12.63 MW

 Starting RMP2 calculation

 ITER.      SQ.NORM     CORR.ENERGY   TOTAL ENERGY   ENERGY CHANGE        DEN1      VAR(S)    VAR(P)  DIIS     TIME
   1      1.24301889    -0.78638061  -268.05177616    -0.78638061    -0.00304959  0.20D-04  0.11D-02  1  1     0.98
   2      1.24566000    -0.78966938  -268.05506493    -0.00328877    -0.00000474  0.54D-06  0.19D-05  2  2     1.25
   3      1.24572555    -0.78971145  -268.05510700    -0.00004207    -0.00000003  0.16D-07  0.68D-08  3  3     1.54
   4      1.24572651    -0.78971145  -268.05510700    -0.00000000    -0.00000000  0.27D-09  0.38D-10  4  4     1.86
   5      1.24572659    -0.78971148  -268.05510703    -0.00000003    -0.00000000  0.25D-11  0.65D-12  5  5     2.20
   6      1.24572660    -0.78971149  -268.05510704    -0.00000001    -0.00000000  0.28D-13  0.87D-14  6  6     2.56
   7      1.24572660    -0.78971149  -268.05510704     0.00000000    -0.00000000  0.47D-15  0.12D-15  6  1     2.92
   8      1.24572660    -0.78971149  -268.05510704     0.00000000    -0.00000000  0.59D-17  0.13D-17  6  2     3.28

 Norm of t1 vector:      0.03892782      S-energy:    -0.00227105      T1 diagnostic:  0.00055039
 Norm of t2 vector:      0.49417733      P-energy:    -0.78744044
                                         Alpha-Beta:  -0.59341304
                                         Alpha-Alpha: -0.10094381
                                         Beta-Beta:   -0.09308359

 Spin contamination <S**2-Sz**2-Sz>     0.00104020
  Reference energy                   -267.265395549553
  RHF-RMP2 correlation energy          -0.789711487640
 !RHF-RMP2 energy                    -268.055107037193

 Starting UCCSD calculation

 ITER.      SQ.NORM     CORR.ENERGY   TOTAL ENERGY   ENERGY CHANGE        DEN1      VAR(S)    VAR(P)  DIIS     TIME
   1      1.26278421    -0.80904447  -268.07444002    -0.80904447    -0.02515536  0.38D-02  0.59D-02  1  1     9.12
   2      1.29155434    -0.83645158  -268.10184713    -0.02740710    -0.00201126  0.22D-03  0.66D-03  2  2    15.26
   3      1.30149519    -0.84094927  -268.10634482    -0.00449770    -0.00032468  0.19D-03  0.56D-04  3  3    21.55
   4      1.30640940    -0.84242653  -268.10782208    -0.00147726    -0.00007210  0.43D-04  0.14D-04  4  4    27.84
   5      1.30913990    -0.84281471  -268.10821026    -0.00038817    -0.00002367  0.19D-04  0.32D-05  5  5    34.01
   6      1.31107925    -0.84301922  -268.10841477    -0.00020451    -0.00000645  0.42D-05  0.12D-05  6  6    39.70
   7      1.31202819    -0.84307798  -268.10847353    -0.00005877    -0.00000208  0.14D-05  0.37D-06  6  2    45.37
   8      1.31246938    -0.84312064  -268.10851619    -0.00004266    -0.00000065  0.45D-06  0.11D-06  6  1    51.03
   9      1.31265431    -0.84312521  -268.10852076    -0.00000457    -0.00000022  0.15D-06  0.35D-07  6  4    56.72
  10      1.31271735    -0.84312814  -268.10852369    -0.00000292    -0.00000005  0.35D-07  0.95D-08  6  3    62.41
  11      1.31274684    -0.84312688  -268.10852243     0.00000126    -0.00000002  0.13D-07  0.28D-08  6  5    68.13
  12      1.31275720    -0.84312662  -268.10852217     0.00000026    -0.00000000  0.26D-08  0.95D-09  6  6    73.89
  13      1.31275605    -0.84312571  -268.10852125     0.00000091    -0.00000000  0.96D-09  0.28D-09  6  2    79.63
  14      1.31275084    -0.84312486  -268.10852041     0.00000084    -0.00000000  0.21D-09  0.67D-10  6  1    85.39
  15      1.31274677    -0.84312427  -268.10851982     0.00000059    -0.00000000  0.78D-10  0.19D-10  6  4    91.67
  16      1.31274358    -0.84312389  -268.10851944     0.00000038    -0.00000000  0.28D-10  0.63D-11  6  3    97.95
  17      1.31274138    -0.84312365  -268.10851920     0.00000024    -0.00000000  0.10D-10  0.24D-11  6  5   104.23
  18      1.31274048    -0.84312359  -268.10851914     0.00000006    -0.00000000  0.41D-11  0.87D-12  6  6   110.52
  19      1.31273987    -0.84312356  -268.10851911     0.00000003    -0.00000000  0.16D-11  0.37D-12  6  2   115.30
  20      1.31273956    -0.84312355  -268.10851910     0.00000001    -0.00000000  0.60D-12  0.13D-12  6  1   120.09
  21      1.31273939    -0.84312354  -268.10851909     0.00000001    -0.00000000  0.28D-12  0.58D-13  6  4   124.87
  22      1.31273927    -0.84312353  -268.10851908     0.00000001    -0.00000000  0.73D-13  0.21D-13  6  3   129.67
  23      1.31273921    -0.84312353  -268.10851908     0.00000000    -0.00000000  0.21D-13  0.62D-14  6  5   134.47
  24      1.31273921    -0.84312353  -268.10851908    -0.00000000    -0.00000000  0.67D-14  0.22D-14  6  6   139.27
  25      1.31273921    -0.84312353  -268.10851908    -0.00000000    -0.00000000  0.21D-14  0.52D-15  6  2   144.06
  26      1.31273922    -0.84312353  -268.10851908    -0.00000000    -0.00000000  0.76D-15  0.15D-15  6  1   148.97
  27      1.31273923    -0.84312353  -268.10851908    -0.00000000    -0.00000000  0.20D-15  0.62D-16  6  3   153.80
  28      1.31273923    -0.84312353  -268.10851908    -0.00000000    -0.00000000  0.29D-16  0.11D-16  6  4   158.59
  29      1.31273924    -0.84312353  -268.10851908    -0.00000000    -0.00000000  0.70D-17  0.29D-17  6  5   163.39
  30      1.31273924    -0.84312353  -268.10851908    -0.00000000    -0.00000000  0.15D-17  0.53D-18  6  6   168.20
  31      1.31273924    -0.84312353  -268.10851908    -0.00000000    -0.00000000  0.35D-18  0.10D-18  6  2   172.98

 Norm of t1 vector:      0.13872435      S-energy:    -0.00282048      T1 diagnostic:  0.01617072
                                                                       D1 diagnostic:  0.06283867
 Norm of t2 vector:      0.54175160      P-energy:    -0.84030304
                                         Alpha-Beta:  -0.66485171
                                         Alpha-Alpha: -0.09147638
                                         Beta-Beta:   -0.08397495

 Spin contamination <S**2-Sz**2-Sz>     0.00217076

 Memory could be reduced to 28.85 Mwords without degradation in triples
 

 RESULTS
 =======

  Reference energy                   -267.265395549553
  UCCSD singles energy                 -0.002820484598
  UCCSD pair energy                    -0.840303044995
  UCCSD correlation energy             -0.843123529593
  Triples (T) contribution             -0.024975700528
  Total correlation energy             -0.868099230121
 
  RHF-UCCSD energy                   -268.108519079147
  RHF-UCCSD[T] energy                -268.134830922713
  RHF-UCCSD-T energy                 -268.133073203224
 !RHF-UCCSD(T) energy                -268.133494779674

 Program statistics:

 Available memory in ccsd:               999997692
 Min. memory needed in ccsd:               7337057
 Max. memory used in ccsd:                10523002
 Max. memory used in cckext:              10867977 (31 integral passes)
 Max. memory used in cckint:              12633073 ( 1 integral passes)



 **********************************************************************************************************************************
 DATASETS  * FILE   NREC   LENGTH (MB)   RECORD NAMES
              1      18        3.17       500      610      700      900      950      970     1000      129      960     1100   
                                          VAR    BASINP    GEOM    SYMINP    ZMAT    AOBASIS   BASIS     P2S    ABASIS      S 
                                         1400     1410     1200     1210     1080     1600     1650     1700   
                                           T        V       H0       H01     AOSYM     SMH    MOLCAS    OPER   

              2       3        0.77       700     1000     2100   
                                         GEOM     BASIS     RHF  

 PROGRAMS   *        TOTAL  UCCSD(T)       RHF       INT
 CPU TIMES  *       211.31    209.61      0.88      0.77
 REAL TIME  *       221.23 SEC
 DISK USED  *         1.29 GB      
 SF USED    *       553.73 MB      
 GA USED    *         0.00 MB       (max)       0.00 MB       (current)
 **********************************************************************************************************************************

        UCCSD(T)        RHF-SCF 
   -268.13349478   -267.26539555
 **********************************************************************************************************************************
 Variable memory released
