
 Primary working directories    : /tmp/320938.276.gen4.q
 Secondary working directories  : /tmp/320938.276.gen4.q
 Wavefunction directory         : /home/vulcan/mel64643/wfu/
 Main file repository           : /tmp/320938.276.gen4.q/

 ARCHNAME  : Linux/x86_64
 FC        : /opt/intel/compilers_and_libraries_2016.1.150/linux/bin/intel64/ifort
 FCVERSION : 16.0.1
 BLASLIB   : -mkl
 id        : ccgc

 Nodes     nprocs
 n034         3
 Number of processes for MPI-2 version of Molpro:   nprocs(total)=    4   nprocs(compute)=    3   nprocs(helper)=    1
 ga_uses_ma=false, calling ma_init with nominal heap.
 GA-space will be limited to   8.0 MW (determined by -G option)

 Using customized tuning parameters: mindgm=10; mindgv=16; mindgc=4; mindgr=1; noblas=0; mincuda=1000; minvec=7
 default implementation of scratch files=sf  

 ***,Frequencies for min3
 memory,1000,m
 gthresh,energy=1.0d-10,orbital=1.0d-10,oneint=1.0d-16,twoint=1.0d-16,optgrad=1.0d-6,compress=1.0d-13
 geomtyp=xyz
 
  geometry = {
  12
  arbitrary comment
     C    1.776964391707    0.711398808326   -0.047331391796
     C    0.492496239012   -0.059989938328   -0.196517226001
     C    0.450181122091   -1.536288650095    0.101835187029
     O   -0.560914019703    0.727166595303    0.254452223248
     O   -1.838022972139    0.092293601265   -0.120567016389
     H    2.585113635919    0.211799276057   -0.612093029185
     H    1.660147484469    1.743127794509   -0.426507142753
     H    2.095089466588    0.773792408377    1.017269512218
     H   -0.505005128504   -1.982675614330   -0.221048886453
     H    1.281732713249   -2.046979857926   -0.418411970631
     H    0.561853292788   -1.719534271181    1.193713119875
     H   -1.988368970911    0.551154225008   -0.966847403024
  }
 
 basis=cc-pvdz
 {rhf;maxit,200}
 {uccsd(t);maxit,200}

 Variables initialized (661), CPU time= 0.01 sec
 Commands  initialized (458), CPU time= 0.00 sec, 486 directives.
 Default parameters read. Elapsed time= 0.06 sec

 Checking input...
 Passed
1


                                         ***  PROGRAM SYSTEM MOLPRO  ***
                         Copyright, University College Cardiff Consultants Limited, 2008

                                    Version 2010.1 linked May 16 2016 07:17:05


 **********************************************************************************************************************************
 LABEL *   Frequencies for min3                                                          
 Linux-4.4.3/n034(x86_64) 64 bit mpp version                                             DATE: 07-Mar-20          TIME: 02:34:50  
 **********************************************************************************************************************************

 SHA1:             9e8077add272b0f3cad6f7df79ec5211205f459d
 **********************************************************************************************************************************

 THRESHOLDS:

 ZERO    =  1.00D-12  ONEINT  =  1.00D-16  TWOINT  =  1.00D-16  PREFAC  =  1.00D-14  LOCALI  =  1.00D-09  EORDER  =  1.00D-04
 ENERGY  =  1.00D-10  ETEST   =  0.00D+00  EDENS   =  0.00D+00  THRDEDEF=  1.00D-06  GRADIENT=  1.00D-02  STEP    =  1.00D-03
 ORBITAL =  1.00D-10  CIVEC   =  1.00D-05  COEFF   =  1.00D-04  PRINTCI =  5.00D-02  PUNCHCI =  9.90D+01  OPTGRAD =  1.00D-06
 OPTENERG=  1.00D-06  OPTSTEP =  3.00D-04  THRGRAD =  1.00D-10  COMPRESS=  1.00D-13  VARMIN  =  1.00D-07  VARMAX  =  1.00D-03
 THRDOUB =  0.00D+00  THRDIV  =  1.00D-05  THRRED  =  1.00D-07  THRPSP  =  1.00D+00  THRDC   =  1.00D-10  THRCS   =  1.00D-10
 THRNRM  =  1.00D-08  THREQ   =  0.00D+00  THRDE   =  1.00D+00  THRREF  =  1.00D-05  SPARFAC =  1.00D+00  THRDLP  =  1.00D-07
 THRDIA  =  1.00D-10  THRDLS  =  1.00D-07  THRGPS  =  0.00D+00  THRKEX  =  0.00D+00  THRDIS  =  2.00D-01  THRVAR  =  1.00D-10
 THRLOC  =  1.00D-06  THRGAP  =  1.00D-06  THRLOCT = -1.00D+00  THRGAPT = -1.00D+00  THRORB  =  1.00D-06  THRMLTP =  0.00D+00
 THRCPQCI=  1.00D-10  KEXTA   =  0.00D+00  THRCOARS=  0.00D+00  SYMTOL  =  1.00D-06  GRADTOL =  1.00D-06  THROVL  =  1.00D-08
 THRORTH =  1.00D-08  GRID    =  1.00D-06  GRIDMAX =  1.00D-03  DTMAX   =  0.00D+00

 SETTING GEOMTYP        =    XYZ

 Variable memory set to 1000000000 words,  buffer space   230000 words

 SETTING BASIS          =    CC-PVDZ


 Recomputing integrals since basis changed


 Using spherical harmonics

 Library entry C      S cc-pVDZ              selected for orbital group  1
 Library entry C      P cc-pVDZ              selected for orbital group  1
 Library entry C      D cc-pVDZ              selected for orbital group  1
 Library entry O      S cc-pVDZ              selected for orbital group  2
 Library entry O      P cc-pVDZ              selected for orbital group  2
 Library entry O      D cc-pVDZ              selected for orbital group  2
 Library entry H      S cc-pVDZ              selected for orbital group  3
 Library entry H      P cc-pVDZ              selected for orbital group  3

1PROGRAM * SEWARD (Integral evaluation for generally contracted gaussian basis sets)     Author: Roland Lindh, 1990

 Geometry written to block  1 of record 700


 Point group  C1  



 ATOMIC COORDINATES

 NR  ATOM    CHARGE       X              Y              Z

   1  C       6.00    3.357976046    1.344348918   -0.089443368
   2  C       6.00    0.930683012   -0.113364554   -0.371363737
   3  C       6.00    0.850719030   -2.903164807    0.192440614
   4  O       8.00   -1.059973881    1.374145717    0.480845015
   5  O       8.00   -3.473360041    0.174409630   -0.227838641
   6  H       1.00    4.885156790    0.400242627   -1.156688192
   7  H       1.00    3.137224083    3.294034144   -0.805981693
   8  H       1.00    3.959145313    1.462255734    1.922360780
   9  H       1.00   -0.954321388   -3.746713919   -0.417721857
  10  H       1.00    2.422123802   -3.868231328   -0.790684035
  11  H       1.00    1.061748849   -3.249448846    2.255790876
  12  H       1.00   -3.757472803    1.041530541   -1.827076803

 Bond lengths in Bohr (Angstrom)

 1-2  2.845375042  1-6  2.088690794  1-7  2.088882735  1-8  2.103012704  2-3  2.847324189
     ( 1.505707623)     ( 1.105287565)     ( 1.105389135)     ( 1.112866393)     ( 1.506739068)

  2- 4  2.627101336   3- 9  2.083757245   3-10  2.089784778   3-11  2.102822038   4- 5  2.786760119
       ( 1.390202153)       ( 1.102676843)       ( 1.105866476)       ( 1.112765497)       ( 1.474689942)

  5-12  1.841244534
       ( 0.974344643)

 Bond angles

  1-2-3  120.41755748   1-2-4  108.91602145   2-1-6  109.97063813   2-1-7  110.73414992

  2- 1- 8  111.55316259   2- 3- 9  111.28385066   2- 3-10  109.76732196   2- 3-11  110.66024639

  2- 4- 5  109.26624044   3- 2- 4  117.98656470   4- 5-12   98.72910139   6- 1- 7  108.89798676

  6- 1- 8  107.76616699   7- 1- 8  107.81999590   9- 3-10  109.06655679   9- 3-11  107.91405007

 10- 3-11  108.06542929

 NUCLEAR CHARGE:                   41
 NUMBER OF PRIMITIVE AOS:         184
 NUMBER OF SYMMETRY AOS:          179
 NUMBER OF CONTRACTIONS:          105   ( 105A   )
 NUMBER OF CORE ORBITALS:           5   (   5A   )
 NUMBER OF VALENCE ORBITALS:       27   (  27A   )


 NUCLEAR REPULSION ENERGY  183.21643918


 Eigenvalues of metric

         1 0.345E-02 0.435E-02 0.105E-01 0.141E-01 0.182E-01 0.214E-01 0.331E-01 0.346E-01


 Contracted 2-electron integrals neglected if value below      1.0D-16
 AO integral compression algorithm  1   Integral accuracy      1.0D-16

     127.402 MB (compressed) written to integral file ( 93.4%)

     Node minimum: 41.419 MB, node maximum: 43.778 MB


 NUMBER OF SORTED TWO-ELECTRON INTEGRALS:    5164320.     BUFFER LENGTH:  32768
 NUMBER OF SEGMENTS:   1  SEGMENT LENGTH:    5164320      RECORD LENGTH: 524288

 Memory used in sort:       5.72 MW

 SORT1 READ    17075251. AND WROTE     5135901. INTEGRALS IN     15 RECORDS. CPU TIME:     0.24 SEC, REAL TIME:     0.28 SEC
 SORT2 READ    15396642. AND WROTE    15487395. INTEGRALS IN    483 RECORDS. CPU TIME:     0.08 SEC, REAL TIME:     0.11 SEC

 Node minimum:     5160610.  Node maximum:     5164320. integrals

 OPERATOR DM      FOR CENTER  0  COORDINATES:    0.000000    0.000000    0.000000


 **********************************************************************************************************************************
 DATASETS  * FILE   NREC   LENGTH (MB)   RECORD NAMES
              1      18        3.17       500      610      700      900      950      970     1000      129      960     1100   
                                          VAR    BASINP    GEOM    SYMINP    ZMAT    AOBASIS   BASIS     P2S    ABASIS      S 
                                         1400     1410     1200     1210     1080     1600     1650     1700   
                                           T        V       H0       H01     AOSYM     SMH    MOLCAS    OPER   

 PROGRAMS   *        TOTAL       INT
 CPU TIMES  *         1.31      1.21
 REAL TIME  *         1.60 SEC
 DISK USED  *       305.17 MB      
 GA USED    *         0.00 MB       (max)       0.00 MB       (current)
 **********************************************************************************************************************************

1PROGRAM * RHF-SCF (OPEN SHELL)       Authors: W. Meyer, H.-J. Werner


 NUMBER OF ELECTRONS:      21+   20-    SPACE SYMMETRY=1    SPIN SYMMETRY: Doublet 
 CONVERGENCE THRESHOLDS:    1.00E-10 (Density)    1.00E-11 (Energy)
 MAX. NUMBER OF ITERATIONS:      200
 INTERPOLATION TYPE:            DIIS
 INTERPOLATION STEPS:              2 (START)      1 (STEP)
 LEVEL SHIFTS:                 -0.30 (CLOSED)  0.00 (OPEN) 



 Orbital guess generated from atomic densities. Full valence occupancy:   32

 Molecular orbital dump at record        2100.2

 ITERATION    DDIFF          GRAD             ENERGY        2-EL.EN.            DIPOLE MOMENTS         DIIS
    1      0.000D+00      0.000D+00      -267.17826551    555.811216    0.57180    0.04982   -0.75118    0
    2      0.000D+00      0.617D-02      -267.24895002    555.729756    0.41526   -0.13085   -0.59913    1
    3      0.927D-02      0.214D-02      -267.26112380    555.648700    0.39494   -0.05913   -0.62623    2
    4      0.336D-02      0.912D-03      -267.26472721    555.800717    0.38032   -0.09930   -0.64236    3
    5      0.186D-02      0.363D-03      -267.26529477    555.771983    0.38284   -0.09282   -0.63520    4
    6      0.792D-03      0.110D-03      -267.26537089    555.758278    0.38111   -0.09262   -0.63791    5
    7      0.277D-03      0.510D-04      -267.26539095    555.755250    0.38040   -0.09237   -0.63738    6
    8      0.143D-03      0.272D-04      -267.26539699    555.753313    0.38068   -0.09248   -0.63759    7
    9      0.922D-04      0.115D-04      -267.26539790    555.753619    0.38086   -0.09244   -0.63735    8
   10      0.366D-04      0.501D-05      -267.26539806    555.754234    0.38112   -0.09245   -0.63741    9
   11      0.147D-04      0.196D-05      -267.26539809    555.754076    0.38117   -0.09245   -0.63742    9
   12      0.650D-05      0.670D-06      -267.26539809    555.754210    0.38119   -0.09245   -0.63741    9
   13      0.227D-05      0.226D-06      -267.26539809    555.754126    0.38120   -0.09245   -0.63741    9
   14      0.632D-06      0.758D-07      -267.26539809    555.754135    0.38120   -0.09245   -0.63741    9
   15      0.193D-06      0.300D-07      -267.26539809    555.754131    0.38120   -0.09245   -0.63741    9
   16      0.825D-07      0.145D-07      -267.26539809    555.754132    0.38120   -0.09245   -0.63741    9
   17      0.374D-07      0.751D-08      -267.26539809    555.754132    0.38120   -0.09245   -0.63741    9
   18      0.222D-07      0.342D-08      -267.26539809    555.754132    0.38120   -0.09245   -0.63741    9
   19      0.114D-07      0.133D-08      -267.26539809    555.754132    0.38120   -0.09245   -0.63741    9
   20      0.444D-08      0.567D-09      -267.26539809    555.754132    0.38120   -0.09245   -0.63741    9
   21      0.165D-08      0.287D-09      -267.26539809    555.754132    0.38120   -0.09245   -0.63741    9
   22      0.754D-09      0.162D-09      -267.26539809    555.754132    0.38120   -0.09245   -0.63741    9
   23      0.447D-09      0.796D-10      -267.26539809    555.754132    0.38120   -0.09245   -0.63741    9
   24      0.264D-09      0.317D-10      -267.26539809    555.754132    0.38120   -0.09245   -0.63741    9
   25      0.933D-10      0.129D-10      -267.26539809    555.754132    0.38120   -0.09245   -0.63741    0

 Final alpha occupancy:  21
 Final beta  occupancy:  20

 !RHF STATE 1.1 Energy               -267.265398091386
 Nuclear energy                       183.21643918
 One-electron energy                 -728.35890341
 Two-electron energy                  277.87706614
 Virial quotient                       -1.00155418
 !RHF STATE 1.1 Dipole moment           0.38119860    -0.09245141    -0.63741210
 Dipole moment /Debye                   0.96884675    -0.23497266    -1.62003384

 Orbital energies:

         1.1          2.1          3.1          4.1          5.1          6.1          7.1          8.1          9.1         10.1
    -20.630360   -20.628745   -11.279265   -11.237874   -11.232164    -1.469963    -1.240546    -1.023316    -0.945425    -0.768339

        11.1         12.1         13.1         14.1         15.1         16.1         17.1         18.1         19.1         20.1
     -0.704483    -0.642952    -0.626706    -0.588858    -0.545331    -0.543131    -0.539214    -0.516834    -0.492890    -0.469776

        21.1         22.1         23.1
     -0.352425     0.181272     0.183566


 **********************************************************************************************************************************
 DATASETS  * FILE   NREC   LENGTH (MB)   RECORD NAMES
              1      18        3.17       500      610      700      900      950      970     1000      129      960     1100   
                                          VAR    BASINP    GEOM    SYMINP    ZMAT    AOBASIS   BASIS     P2S    ABASIS      S 
                                         1400     1410     1200     1210     1080     1600     1650     1700   
                                           T        V       H0       H01     AOSYM     SMH    MOLCAS    OPER   

              2       3        0.77       700     1000     2100   
                                         GEOM     BASIS     RHF  

 PROGRAMS   *        TOTAL       RHF       INT
 CPU TIMES  *         2.61      1.30      1.21
 REAL TIME  *         3.04 SEC
 DISK USED  *       321.74 MB      
 SF USED    *         0.04 MB      
 GA USED    *         0.00 MB       (max)       0.00 MB       (current)
 **********************************************************************************************************************************


1PROGRAM * CCSD (Unrestricted open-shell coupled cluster)     Authors: C. Hampel, H.-J. Werner, 1991, M. Deegan, P.J. Knowles, 1992


 Convergence thresholds:  THRVAR = 1.00D-08  THRDEN = 1.00D-10

 CCSD(T)     terms to be evaluated (factor= 1.000)


 Number of core orbitals:           5 (   5 )
 Number of closed-shell orbitals:  15 (  15 )
 Number of active  orbitals:        1 (   1 )
 Number of external orbitals:      84 (  84 )

 Memory could be reduced to 24.91 Mwords without degradation in triples

 Number of N-1 electron functions:              31
 Number of N-2 electron functions:             465
 Number of singly external CSFs:              2635
 Number of doubly external CSFs:           2537250
 Total number of CSFs:                     2539885

 Molecular orbitals read from record     2100.2  Type=RHF/CANONICAL (state 1.1)

 Integral transformation finished. Total CPU:   1.15 sec, npass=  1  Memory used:  12.63 MW

 Starting RMP2 calculation

 ITER.      SQ.NORM     CORR.ENERGY   TOTAL ENERGY   ENERGY CHANGE        DEN1      VAR(S)    VAR(P)  DIIS     TIME
   1      1.24302607    -0.78636886  -268.05176695    -0.78636886    -0.00304983  0.20D-04  0.11D-02  1  1     1.52
   2      1.24566736    -0.78965789  -268.05505598    -0.00328904    -0.00000474  0.54D-06  0.19D-05  2  2     1.86
   3      1.24573287    -0.78969994  -268.05509803    -0.00004204    -0.00000003  0.16D-07  0.67D-08  3  3     2.23
   4      1.24573382    -0.78969994  -268.05509803    -0.00000000    -0.00000000  0.27D-09  0.38D-10  4  4     2.63
   5      1.24573390    -0.78969997  -268.05509806    -0.00000003    -0.00000000  0.25D-11  0.65D-12  5  5     3.06
   6      1.24573391    -0.78969998  -268.05509807    -0.00000001    -0.00000000  0.28D-13  0.86D-14  6  6     3.52
   7      1.24573392    -0.78969998  -268.05509807     0.00000000    -0.00000000  0.47D-15  0.12D-15  6  1     3.97
   8      1.24573392    -0.78969998  -268.05509807     0.00000000    -0.00000000  0.59D-17  0.13D-17  6  2     4.43

 Norm of t1 vector:      0.03891789      S-energy:    -0.00227061      T1 diagnostic:  0.00054992
 Norm of t2 vector:      0.49418550      P-energy:    -0.78742937
                                         Alpha-Beta:  -0.59341233
                                         Alpha-Alpha: -0.10093891
                                         Beta-Beta:   -0.09307813

 Spin contamination <S**2-Sz**2-Sz>     0.00103950
  Reference energy                   -267.265398091387
  RHF-RMP2 correlation energy          -0.789699975395
 !RHF-RMP2 energy                    -268.055098066782

 Starting UCCSD calculation

 ITER.      SQ.NORM     CORR.ENERGY   TOTAL ENERGY   ENERGY CHANGE        DEN1      VAR(S)    VAR(P)  DIIS     TIME
   1      1.26279851    -0.80903927  -268.07443736    -0.80903927    -0.02515731  0.38D-02  0.59D-02  1  1    11.14
   2      1.29157335    -0.83644957  -268.10184766    -0.02741029    -0.00201137  0.22D-03  0.66D-03  2  2    17.83
   3      1.30151457    -0.84094779  -268.10634588    -0.00449822    -0.00032470  0.19D-03  0.56D-04  3  3    24.57
   4      1.30642733    -0.84242501  -268.10782310    -0.00147722    -0.00007210  0.43D-04  0.14D-04  4  4    31.38
   5      1.30915682    -0.84281314  -268.10821123    -0.00038813    -0.00002368  0.19D-04  0.32D-05  5  5    38.20
   6      1.31109544    -0.84301759  -268.10841569    -0.00020445    -0.00000646  0.42D-05  0.12D-05  6  6    45.02
   7      1.31204463    -0.84307639  -268.10847448    -0.00005879    -0.00000208  0.14D-05  0.37D-06  6  2    51.87
   8      1.31248585    -0.84311906  -268.10851715    -0.00004267    -0.00000065  0.45D-06  0.11D-06  6  1    58.73
   9      1.31267060    -0.84312362  -268.10852171    -0.00000457    -0.00000022  0.15D-06  0.35D-07  6  4    65.58
  10      1.31273355    -0.84312655  -268.10852464    -0.00000293    -0.00000005  0.35D-07  0.95D-08  6  3    72.37
  11      1.31276298    -0.84312528  -268.10852337     0.00000127    -0.00000002  0.13D-07  0.28D-08  6  5    79.19
  12      1.31277333    -0.84312502  -268.10852311     0.00000026    -0.00000000  0.26D-08  0.95D-09  6  6    86.02
  13      1.31277219    -0.84312410  -268.10852220     0.00000091    -0.00000000  0.96D-09  0.28D-09  6  2    92.87
  14      1.31276699    -0.84312326  -268.10852135     0.00000084    -0.00000000  0.21D-09  0.67D-10  6  1    99.70
  15      1.31276291    -0.84312268  -268.10852077     0.00000059    -0.00000000  0.78D-10  0.19D-10  6  4   106.55
  16      1.31275973    -0.84312229  -268.10852038     0.00000038    -0.00000000  0.28D-10  0.63D-11  6  3   113.38
  17      1.31275753    -0.84312205  -268.10852014     0.00000024    -0.00000000  0.10D-10  0.24D-11  6  5   120.84
  18      1.31275662    -0.84312199  -268.10852008     0.00000006    -0.00000000  0.41D-11  0.87D-12  6  6   127.67
  19      1.31275602    -0.84312196  -268.10852005     0.00000003    -0.00000000  0.16D-11  0.37D-12  6  2   134.51
  20      1.31275570    -0.84312195  -268.10852004     0.00000001    -0.00000000  0.60D-12  0.13D-12  6  1   141.32
  21      1.31275554    -0.84312194  -268.10852003     0.00000001    -0.00000000  0.28D-12  0.58D-13  6  4   148.14
  22      1.31275541    -0.84312193  -268.10852002     0.00000001    -0.00000000  0.74D-13  0.21D-13  6  3   154.97
  23      1.31275536    -0.84312192  -268.10852002     0.00000000    -0.00000000  0.21D-13  0.62D-14  6  5   161.83
  24      1.31275535    -0.84312193  -268.10852002    -0.00000000    -0.00000000  0.67D-14  0.22D-14  6  6   168.66
  25      1.31275535    -0.84312193  -268.10852002    -0.00000000    -0.00000000  0.21D-14  0.52D-15  6  2   175.46
  26      1.31275536    -0.84312193  -268.10852002    -0.00000000    -0.00000000  0.77D-15  0.15D-15  6  1   182.28
  27      1.31275537    -0.84312193  -268.10852002    -0.00000000    -0.00000000  0.20D-15  0.62D-16  6  3   189.15
  28      1.31275538    -0.84312193  -268.10852002    -0.00000000    -0.00000000  0.30D-16  0.11D-16  6  4   195.98
  29      1.31275538    -0.84312193  -268.10852002    -0.00000000    -0.00000000  0.70D-17  0.29D-17  6  5   202.82
  30      1.31275538    -0.84312193  -268.10852002    -0.00000000    -0.00000000  0.15D-17  0.54D-18  6  6   209.67
  31      1.31275538    -0.84312193  -268.10852002    -0.00000000    -0.00000000  0.35D-18  0.10D-18  6  2   216.48

 Norm of t1 vector:      0.13870397      S-energy:    -0.00281986      T1 diagnostic:  0.01616894
                                                                       D1 diagnostic:  0.06283906
 Norm of t2 vector:      0.54177171      P-energy:    -0.84030207
                                         Alpha-Beta:  -0.66486128
                                         Alpha-Alpha: -0.09147171
                                         Beta-Beta:   -0.08396908

 Spin contamination <S**2-Sz**2-Sz>     0.00216911

 Memory could be reduced to 28.85 Mwords without degradation in triples
 

 RESULTS
 =======

  Reference energy                   -267.265398091387
  UCCSD singles energy                 -0.002819858014
  UCCSD pair energy                    -0.840302070976
  UCCSD correlation energy             -0.843121928991
  Triples (T) contribution             -0.024975593396
  Total correlation energy             -0.868097522387
 
  RHF-UCCSD energy                   -268.108520020378
  RHF-UCCSD[T] energy                -268.134832147932
  RHF-UCCSD-T energy                 -268.133073822582
 !RHF-UCCSD(T) energy                -268.133495613774

 Program statistics:

 Available memory in ccsd:               999997692
 Min. memory needed in ccsd:               7337057
 Max. memory used in ccsd:                10523002
 Max. memory used in cckext:              10867977 (31 integral passes)
 Max. memory used in cckint:              12633073 ( 1 integral passes)



 **********************************************************************************************************************************
 DATASETS  * FILE   NREC   LENGTH (MB)   RECORD NAMES
              1      18        3.17       500      610      700      900      950      970     1000      129      960     1100   
                                          VAR    BASINP    GEOM    SYMINP    ZMAT    AOBASIS   BASIS     P2S    ABASIS      S 
                                         1400     1410     1200     1210     1080     1600     1650     1700   
                                           T        V       H0       H01     AOSYM     SMH    MOLCAS    OPER   

              2       3        0.77       700     1000     2100   
                                         GEOM     BASIS     RHF  

 PROGRAMS   *        TOTAL  UCCSD(T)       RHF       INT
 CPU TIMES  *       281.04    278.43      1.30      1.21
 REAL TIME  *       294.00 SEC
 DISK USED  *         1.29 GB      
 SF USED    *       553.73 MB      
 GA USED    *         0.00 MB       (max)       0.00 MB       (current)
 **********************************************************************************************************************************

        UCCSD(T)        RHF-SCF 
   -268.13349561   -267.26539809
 **********************************************************************************************************************************
 Variable memory released
