
 Primary working directories    : /tmp/320938.397.gen6.q
 Secondary working directories  : /tmp/320938.397.gen6.q
 Wavefunction directory         : /home/vulcan/mel64643/wfu/
 Main file repository           : /tmp/320938.397.gen6.q/

 ARCHNAME  : Linux/x86_64
 FC        : /opt/intel/compilers_and_libraries_2016.1.150/linux/bin/intel64/ifort
 FCVERSION : 16.0.1
 BLASLIB   : -mkl
 id        : ccgc

 Nodes     nprocs
 n081         3
 Number of processes for MPI-2 version of Molpro:   nprocs(total)=    4   nprocs(compute)=    3   nprocs(helper)=    1
 ga_uses_ma=false, calling ma_init with nominal heap.
 GA-space will be limited to   8.0 MW (determined by -G option)

 Using customized tuning parameters: mindgm=10; mindgv=16; mindgc=4; mindgr=1; noblas=0; mincuda=1000; minvec=7
 default implementation of scratch files=sf  

 ***,Frequencies for min3
 memory,1000,m
 gthresh,energy=1.0d-10,orbital=1.0d-10,oneint=1.0d-16,twoint=1.0d-16,optgrad=1.0d-6,compress=1.0d-13
 geomtyp=xyz
 
  geometry = {
  12
  arbitrary comment
     C    1.776964391707    0.711398808326   -0.047331391796
     C    0.491811976407   -0.059992870174   -0.196493901896
     C    0.450332819107   -1.536294019674    0.101417522804
     O   -0.560767745493    0.727234937526    0.254453964104
     O   -1.837840335593    0.092269037726   -0.120531795196
     H    2.585373063107    0.211465914126   -0.611440883996
     H    1.660426393907    1.742887987326   -0.426532369096
     H    2.095123485707    0.772072370482    1.017533013502
     H   -0.504591342714   -1.984698316673   -0.219982474570
     H    1.282097229556   -2.045557153142   -0.416997664209
     H    0.561845106484   -1.717539670951    1.194844537695
     H   -1.988590327598    0.551456873514   -0.967241233596
  }
 
 basis=cc-pvdz
 {rhf;maxit,200}
 {uccsd(t);maxit,200}

 Variables initialized (661), CPU time= 0.01 sec
 Commands  initialized (458), CPU time= 0.00 sec, 486 directives.
 Default parameters read. Elapsed time= 0.07 sec

 Checking input...
 Passed
1


                                         ***  PROGRAM SYSTEM MOLPRO  ***
                         Copyright, University College Cardiff Consultants Limited, 2008

                                    Version 2010.1 linked May 16 2016 07:17:05


 **********************************************************************************************************************************
 LABEL *   Frequencies for min3                                                          
 Linux-4.4.3/n081(x86_64) 64 bit mpp version                                             DATE: 07-Mar-20          TIME: 03:18:20  
 **********************************************************************************************************************************

 SHA1:             9e8077add272b0f3cad6f7df79ec5211205f459d
 **********************************************************************************************************************************

 THRESHOLDS:

 ZERO    =  1.00D-12  ONEINT  =  1.00D-16  TWOINT  =  1.00D-16  PREFAC  =  1.00D-14  LOCALI  =  1.00D-09  EORDER  =  1.00D-04
 ENERGY  =  1.00D-10  ETEST   =  0.00D+00  EDENS   =  0.00D+00  THRDEDEF=  1.00D-06  GRADIENT=  1.00D-02  STEP    =  1.00D-03
 ORBITAL =  1.00D-10  CIVEC   =  1.00D-05  COEFF   =  1.00D-04  PRINTCI =  5.00D-02  PUNCHCI =  9.90D+01  OPTGRAD =  1.00D-06
 OPTENERG=  1.00D-06  OPTSTEP =  3.00D-04  THRGRAD =  1.00D-10  COMPRESS=  1.00D-13  VARMIN  =  1.00D-07  VARMAX  =  1.00D-03
 THRDOUB =  0.00D+00  THRDIV  =  1.00D-05  THRRED  =  1.00D-07  THRPSP  =  1.00D+00  THRDC   =  1.00D-10  THRCS   =  1.00D-10
 THRNRM  =  1.00D-08  THREQ   =  0.00D+00  THRDE   =  1.00D+00  THRREF  =  1.00D-05  SPARFAC =  1.00D+00  THRDLP  =  1.00D-07
 THRDIA  =  1.00D-10  THRDLS  =  1.00D-07  THRGPS  =  0.00D+00  THRKEX  =  0.00D+00  THRDIS  =  2.00D-01  THRVAR  =  1.00D-10
 THRLOC  =  1.00D-06  THRGAP  =  1.00D-06  THRLOCT = -1.00D+00  THRGAPT = -1.00D+00  THRORB  =  1.00D-06  THRMLTP =  0.00D+00
 THRCPQCI=  1.00D-10  KEXTA   =  0.00D+00  THRCOARS=  0.00D+00  SYMTOL  =  1.00D-06  GRADTOL =  1.00D-06  THROVL  =  1.00D-08
 THRORTH =  1.00D-08  GRID    =  1.00D-06  GRIDMAX =  1.00D-03  DTMAX   =  0.00D+00

 SETTING GEOMTYP        =    XYZ

 Variable memory set to 1000000000 words,  buffer space   230000 words

 SETTING BASIS          =    CC-PVDZ


 Recomputing integrals since basis changed


 Using spherical harmonics

 Library entry C      S cc-pVDZ              selected for orbital group  1
 Library entry C      P cc-pVDZ              selected for orbital group  1
 Library entry C      D cc-pVDZ              selected for orbital group  1
 Library entry O      S cc-pVDZ              selected for orbital group  2
 Library entry O      P cc-pVDZ              selected for orbital group  2
 Library entry O      D cc-pVDZ              selected for orbital group  2
 Library entry H      S cc-pVDZ              selected for orbital group  3
 Library entry H      P cc-pVDZ              selected for orbital group  3

1PROGRAM * SEWARD (Integral evaluation for generally contracted gaussian basis sets)     Author: Roland Lindh, 1990

 Geometry written to block  1 of record 700


 Point group  C1  



 ATOMIC COORDINATES

 NR  ATOM    CHARGE       X              Y              Z

   1  C       6.00    3.357976046    1.344348918   -0.089443368
   2  C       6.00    0.929389944   -0.113370094   -0.371319661
   3  C       6.00    0.851005696   -2.903174955    0.191651343
   4  O       8.00   -1.059697462    1.374274865    0.480848305
   5  O       8.00   -3.473014908    0.174363212   -0.227772083
   6  H       1.00    4.885647037    0.399612664   -1.155455816
   7  H       1.00    3.137751146    3.293580974   -0.806029364
   8  H       1.00    3.959209599    1.459005334    1.922858725
   9  H       1.00   -0.953539446   -3.750536272   -0.415706631
  10  H       1.00    2.422812638   -3.865542806   -0.788011383
  11  H       1.00    1.061733380   -3.245679598    2.257928946
  12  H       1.00   -3.757891107    1.042102464   -1.827821035

 Bond lengths in Bohr (Angstrom)

 1-2  2.846476668  1-6  2.088704811  1-7  2.088420481  1-8  2.103327743  2-3  2.847119878
     ( 1.506290578)     ( 1.105294982)     ( 1.105144521)     ( 1.113033105)     ( 1.506630951)

  2- 4  2.625975338   3- 9  2.084055681   3-10  2.087215370   3-11  2.105046014   4- 5  2.786760112
       ( 1.389606300)       ( 1.102834769)       ( 1.104506804)       ( 1.113942374)       ( 1.474689938)

  5-12  1.842357866
       ( 0.974933793)

 Bond angles

  1-2-3  120.37866573   1-2-4  108.90555081   2-1-6  109.98947225   2-1-7  110.73429490

  2- 1- 8  111.50241529   2- 3- 9  111.38422350   2- 3-10  109.77053178   2- 3-11  110.53422999

  2- 4- 5  109.23946113   3- 2- 4  118.03986083   4- 5-12   98.73961520   6- 1- 7  108.91518355

  6- 1- 8  107.69020782   7- 1- 8  107.91093034   9- 3-10  109.13570218   9- 3-11  107.85373974

 10- 3-11  108.07808158

 NUCLEAR CHARGE:                   41
 NUMBER OF PRIMITIVE AOS:         184
 NUMBER OF SYMMETRY AOS:          179
 NUMBER OF CONTRACTIONS:          105   ( 105A   )
 NUMBER OF CORE ORBITALS:           5   (   5A   )
 NUMBER OF VALENCE ORBITALS:       27   (  27A   )


 NUCLEAR REPULSION ENERGY  183.22330319


 Eigenvalues of metric

         1 0.345E-02 0.435E-02 0.105E-01 0.141E-01 0.182E-01 0.214E-01 0.331E-01 0.346E-01


 Contracted 2-electron integrals neglected if value below      1.0D-16
 AO integral compression algorithm  1   Integral accuracy      1.0D-16

     127.664 MB (compressed) written to integral file ( 93.2%)

     Node minimum: 41.157 MB, node maximum: 43.778 MB


 NUMBER OF SORTED TWO-ELECTRON INTEGRALS:    5164320.     BUFFER LENGTH:  32768
 NUMBER OF SEGMENTS:   1  SEGMENT LENGTH:    5164320      RECORD LENGTH: 524288

 Memory used in sort:       5.72 MW

 SORT1 READ    17075251. AND WROTE     5135901. INTEGRALS IN     15 RECORDS. CPU TIME:     0.19 SEC, REAL TIME:     0.23 SEC
 SORT2 READ    15396620. AND WROTE    15487395. INTEGRALS IN    471 RECORDS. CPU TIME:     0.06 SEC, REAL TIME:     0.09 SEC

 Node minimum:     5160610.  Node maximum:     5164320. integrals

 OPERATOR DM      FOR CENTER  0  COORDINATES:    0.000000    0.000000    0.000000


 **********************************************************************************************************************************
 DATASETS  * FILE   NREC   LENGTH (MB)   RECORD NAMES
              1      18        3.17       500      610      700      900      950      970     1000      129      960     1100   
                                          VAR    BASINP    GEOM    SYMINP    ZMAT    AOBASIS   BASIS     P2S    ABASIS      S 
                                         1400     1410     1200     1210     1080     1600     1650     1700   
                                           T        V       H0       H01     AOSYM     SMH    MOLCAS    OPER   

 PROGRAMS   *        TOTAL       INT
 CPU TIMES  *         0.85      0.77
 REAL TIME  *         1.24 SEC
 DISK USED  *       305.53 MB      
 GA USED    *         0.00 MB       (max)       0.00 MB       (current)
 **********************************************************************************************************************************

1PROGRAM * RHF-SCF (OPEN SHELL)       Authors: W. Meyer, H.-J. Werner


 NUMBER OF ELECTRONS:      21+   20-    SPACE SYMMETRY=1    SPIN SYMMETRY: Doublet 
 CONVERGENCE THRESHOLDS:    1.00E-10 (Density)    1.00E-11 (Energy)
 MAX. NUMBER OF ITERATIONS:      200
 INTERPOLATION TYPE:            DIIS
 INTERPOLATION STEPS:              2 (START)      1 (STEP)
 LEVEL SHIFTS:                 -0.30 (CLOSED)  0.00 (OPEN) 



 Orbital guess generated from atomic densities. Full valence occupancy:   32

 Molecular orbital dump at record        2100.2

 ITERATION    DDIFF          GRAD             ENERGY        2-EL.EN.            DIPOLE MOMENTS         DIIS
    1      0.000D+00      0.000D+00      -267.17824711    555.824610    0.57018    0.04968   -0.74956    0
    2      0.000D+00      0.617D-02      -267.24891655    555.743580    0.41400   -0.13085   -0.59899    1
    3      0.927D-02      0.214D-02      -267.26109200    555.662266    0.39386   -0.05901   -0.62630    2
    4      0.336D-02      0.912D-03      -267.26469892    555.814276    0.37930   -0.09918   -0.64262    3
    5      0.186D-02      0.363D-03      -267.26526796    555.785620    0.38188   -0.09270   -0.63559    4
    6      0.792D-03      0.110D-03      -267.26534443    555.771889    0.38016   -0.09251   -0.63832    5
    7      0.277D-03      0.511D-04      -267.26536459    555.768874    0.37946   -0.09225   -0.63781    6
    8      0.144D-03      0.273D-04      -267.26537065    555.766929    0.37974   -0.09237   -0.63802    7
    9      0.925D-04      0.115D-04      -267.26537157    555.767242    0.37992   -0.09232   -0.63778    8
   10      0.366D-04      0.501D-05      -267.26537173    555.767855    0.38018   -0.09234   -0.63785    9
   11      0.147D-04      0.196D-05      -267.26537176    555.767697    0.38023   -0.09233   -0.63785    9
   12      0.651D-05      0.671D-06      -267.26537176    555.767831    0.38025   -0.09233   -0.63785    9
   13      0.227D-05      0.226D-06      -267.26537176    555.767747    0.38025   -0.09233   -0.63784    9
   14      0.632D-06      0.759D-07      -267.26537176    555.767756    0.38026   -0.09233   -0.63784    9
   15      0.193D-06      0.301D-07      -267.26537176    555.767752    0.38026   -0.09233   -0.63784    9
   16      0.828D-07      0.146D-07      -267.26537176    555.767753    0.38026   -0.09233   -0.63784    9
   17      0.377D-07      0.755D-08      -267.26537176    555.767753    0.38026   -0.09233   -0.63784    9
   18      0.224D-07      0.343D-08      -267.26537176    555.767753    0.38026   -0.09233   -0.63784    9
   19      0.115D-07      0.133D-08      -267.26537176    555.767753    0.38026   -0.09233   -0.63784    9
   20      0.444D-08      0.569D-09      -267.26537176    555.767753    0.38026   -0.09233   -0.63784    9
   21      0.166D-08      0.288D-09      -267.26537176    555.767753    0.38026   -0.09233   -0.63784    9
   22      0.758D-09      0.162D-09      -267.26537176    555.767753    0.38026   -0.09233   -0.63784    9
   23      0.448D-09      0.799D-10      -267.26537176    555.767753    0.38026   -0.09233   -0.63784    9
   24      0.265D-09      0.318D-10      -267.26537176    555.767753    0.38026   -0.09233   -0.63784    9
   25      0.936D-10      0.130D-10      -267.26537176    555.767753    0.38026   -0.09233   -0.63784    0

 Final alpha occupancy:  21
 Final beta  occupancy:  20

 !RHF STATE 1.1 Energy               -267.265371760031
 Nuclear energy                       183.22330319
 One-electron energy                 -728.37255167
 Two-electron energy                  277.88387672
 Virial quotient                       -1.00155616
 !RHF STATE 1.1 Dipole moment           0.38025788    -0.09233354    -0.63784445
 Dipole moment /Debye                   0.96645584    -0.23467307    -1.62113269

 Orbital energies:

         1.1          2.1          3.1          4.1          5.1          6.1          7.1          8.1          9.1         10.1
    -20.630410   -20.628813   -11.279197   -11.237878   -11.232163    -1.470047    -1.240584    -1.023260    -0.945352    -0.768396

        11.1         12.1         13.1         14.1         15.1         16.1         17.1         18.1         19.1         20.1
     -0.704464    -0.642945    -0.626700    -0.588898    -0.545067    -0.543379    -0.539027    -0.517007    -0.492934    -0.469782

        21.1         22.1         23.1
     -0.352192     0.181243     0.183519


 **********************************************************************************************************************************
 DATASETS  * FILE   NREC   LENGTH (MB)   RECORD NAMES
              1      18        3.17       500      610      700      900      950      970     1000      129      960     1100   
                                          VAR    BASINP    GEOM    SYMINP    ZMAT    AOBASIS   BASIS     P2S    ABASIS      S 
                                         1400     1410     1200     1210     1080     1600     1650     1700   
                                           T        V       H0       H01     AOSYM     SMH    MOLCAS    OPER   

              2       3        0.77       700     1000     2100   
                                         GEOM     BASIS     RHF  

 PROGRAMS   *        TOTAL       RHF       INT
 CPU TIMES  *         1.80      0.95      0.77
 REAL TIME  *         2.31 SEC
 DISK USED  *       322.10 MB      
 SF USED    *         0.04 MB      
 GA USED    *         0.00 MB       (max)       0.00 MB       (current)
 **********************************************************************************************************************************


1PROGRAM * CCSD (Unrestricted open-shell coupled cluster)     Authors: C. Hampel, H.-J. Werner, 1991, M. Deegan, P.J. Knowles, 1992


 Convergence thresholds:  THRVAR = 1.00D-08  THRDEN = 1.00D-10

 CCSD(T)     terms to be evaluated (factor= 1.000)


 Number of core orbitals:           5 (   5 )
 Number of closed-shell orbitals:  15 (  15 )
 Number of active  orbitals:        1 (   1 )
 Number of external orbitals:      84 (  84 )

 Memory could be reduced to 24.91 Mwords without degradation in triples

 Number of N-1 electron functions:              31
 Number of N-2 electron functions:             465
 Number of singly external CSFs:              2635
 Number of doubly external CSFs:           2537250
 Total number of CSFs:                     2539885

 Molecular orbitals read from record     2100.2  Type=RHF/CANONICAL (state 1.1)

 Integral transformation finished. Total CPU:   0.72 sec, npass=  1  Memory used:  12.63 MW

 Starting RMP2 calculation

 ITER.      SQ.NORM     CORR.ENERGY   TOTAL ENERGY   ENERGY CHANGE        DEN1      VAR(S)    VAR(P)  DIIS     TIME
   1      1.24304170    -0.78639644  -268.05176820    -0.78639644    -0.00304984  0.20D-04  0.11D-02  1  1     0.97
   2      1.24568316    -0.78968548  -268.05505724    -0.00328904    -0.00000474  0.54D-06  0.19D-05  2  2     1.21
   3      1.24574870    -0.78972754  -268.05509930    -0.00004206    -0.00000003  0.16D-07  0.68D-08  3  3     1.47
   4      1.24574965    -0.78972754  -268.05509930    -0.00000000    -0.00000000  0.27D-09  0.38D-10  4  4     1.75
   5      1.24574974    -0.78972758  -268.05509934    -0.00000003    -0.00000000  0.25D-11  0.65D-12  5  5     2.06
   6      1.24574975    -0.78972758  -268.05509934    -0.00000001    -0.00000000  0.28D-13  0.86D-14  6  6     2.40
   7      1.24574975    -0.78972758  -268.05509934     0.00000000    -0.00000000  0.47D-15  0.12D-15  6  1     2.72
   8      1.24574975    -0.78972758  -268.05509934     0.00000000    -0.00000000  0.60D-17  0.13D-17  6  2     3.06

 Norm of t1 vector:      0.03893358      S-energy:    -0.00227185      T1 diagnostic:  0.00055014
 Norm of t2 vector:      0.49420029      P-energy:    -0.78745574
                                         Alpha-Beta:  -0.59343138
                                         Alpha-Alpha: -0.10094345
                                         Beta-Beta:   -0.09308091

 Spin contamination <S**2-Sz**2-Sz>     0.00104037
  Reference energy                   -267.265371760030
  RHF-RMP2 correlation energy          -0.789727581275
 !RHF-RMP2 energy                    -268.055099341305

 Starting UCCSD calculation

 ITER.      SQ.NORM     CORR.ENERGY   TOTAL ENERGY   ENERGY CHANGE        DEN1      VAR(S)    VAR(P)  DIIS     TIME
   1      1.26281311    -0.80906347  -268.07443523    -0.80906347    -0.02515788  0.38D-02  0.59D-02  1  1     7.80
   2      1.29158986    -0.83647470  -268.10184646    -0.02741123    -0.00201135  0.22D-03  0.66D-03  2  2    12.55
   3      1.30153203    -0.84097343  -268.10634519    -0.00449873    -0.00032463  0.19D-03  0.56D-04  3  3    17.32
   4      1.30644555    -0.84245067  -268.10782243    -0.00147725    -0.00007208  0.43D-04  0.14D-04  4  4    22.10
   5      1.30917524    -0.84283875  -268.10821051    -0.00038808    -0.00002367  0.19D-04  0.32D-05  5  5    26.92
   6      1.31111447    -0.84304322  -268.10841498    -0.00020447    -0.00000646  0.42D-05  0.12D-05  6  6    31.90
   7      1.31206406    -0.84310201  -268.10847377    -0.00005879    -0.00000208  0.14D-05  0.37D-06  6  2    36.75
   8      1.31250596    -0.84314471  -268.10851647    -0.00004270    -0.00000065  0.45D-06  0.11D-06  6  1    41.58
   9      1.31269135    -0.84314930  -268.10852106    -0.00000459    -0.00000022  0.15D-06  0.35D-07  6  4    46.42
  10      1.31275462    -0.84315224  -268.10852400    -0.00000294    -0.00000005  0.35D-07  0.95D-08  6  3    51.25
  11      1.31278416    -0.84315098  -268.10852274     0.00000126    -0.00000002  0.13D-07  0.28D-08  6  5    56.08
  12      1.31279455    -0.84315072  -268.10852248     0.00000026    -0.00000000  0.26D-08  0.95D-09  6  6    60.92
  13      1.31279340    -0.84314980  -268.10852156     0.00000092    -0.00000000  0.96D-09  0.28D-09  6  2    65.74
  14      1.31278819    -0.84314895  -268.10852071     0.00000084    -0.00000000  0.21D-09  0.68D-10  6  1    70.53
  15      1.31278412    -0.84314837  -268.10852013     0.00000059    -0.00000000  0.78D-10  0.19D-10  6  4    75.36
  16      1.31278093    -0.84314798  -268.10851974     0.00000038    -0.00000000  0.28D-10  0.63D-11  6  3    80.12
  17      1.31277873    -0.84314775  -268.10851951     0.00000024    -0.00000000  0.10D-10  0.24D-11  6  5    84.97
  18      1.31277783    -0.84314769  -268.10851945     0.00000006    -0.00000000  0.41D-11  0.87D-12  6  6    89.81
  19      1.31277722    -0.84314765  -268.10851941     0.00000003    -0.00000000  0.16D-11  0.37D-12  6  2    94.64
  20      1.31277690    -0.84314764  -268.10851940     0.00000001    -0.00000000  0.60D-12  0.13D-12  6  1    99.50
  21      1.31277673    -0.84314763  -268.10851939     0.00000001    -0.00000000  0.28D-12  0.58D-13  6  4   104.33
  22      1.31277661    -0.84314762  -268.10851938     0.00000001    -0.00000000  0.74D-13  0.21D-13  6  3   109.16
  23      1.31277655    -0.84314762  -268.10851938     0.00000000    -0.00000000  0.21D-13  0.63D-14  6  5   114.00
  24      1.31277655    -0.84314762  -268.10851938    -0.00000000    -0.00000000  0.67D-14  0.23D-14  6  6   118.84
  25      1.31277655    -0.84314762  -268.10851938    -0.00000000    -0.00000000  0.21D-14  0.52D-15  6  2   123.68
  26      1.31277656    -0.84314762  -268.10851938    -0.00000000    -0.00000000  0.77D-15  0.15D-15  6  1   128.52
  27      1.31277657    -0.84314762  -268.10851938    -0.00000000    -0.00000000  0.20D-15  0.63D-16  6  3   133.34
  28      1.31277657    -0.84314762  -268.10851938    -0.00000000    -0.00000000  0.30D-16  0.11D-16  6  4   138.17
  29      1.31277657    -0.84314762  -268.10851938    -0.00000000    -0.00000000  0.71D-17  0.29D-17  6  5   143.02
  30      1.31277658    -0.84314762  -268.10851938    -0.00000000    -0.00000000  0.15D-17  0.54D-18  6  6   147.86
  31      1.31277658    -0.84314762  -268.10851938    -0.00000000    -0.00000000  0.35D-18  0.10D-18  6  2   152.68

 Norm of t1 vector:      0.13871407      S-energy:    -0.00282140      T1 diagnostic:  0.01616871
                                                                       D1 diagnostic:  0.06280573
 Norm of t2 vector:      0.54178869      P-energy:    -0.84032622
                                         Alpha-Beta:  -0.66488170
                                         Alpha-Alpha: -0.09147455
                                         Beta-Beta:   -0.08396996

 Spin contamination <S**2-Sz**2-Sz>     0.00217202

 Memory could be reduced to 28.85 Mwords without degradation in triples
 

 RESULTS
 =======

  Reference energy                   -267.265371760030
  UCCSD singles energy                 -0.002821404078
  UCCSD pair energy                    -0.840326217726
  UCCSD correlation energy             -0.843147621804
  Triples (T) contribution             -0.024976837495
  Total correlation energy             -0.868124459299
 
  RHF-UCCSD energy                   -268.108519381834
  RHF-UCCSD[T] energy                -268.134832059047
  RHF-UCCSD-T energy                 -268.133074686248
 !RHF-UCCSD(T) energy                -268.133496219329

 Program statistics:

 Available memory in ccsd:               999997692
 Min. memory needed in ccsd:               7337057
 Max. memory used in ccsd:                10523002
 Max. memory used in cckext:              10867977 (31 integral passes)
 Max. memory used in cckint:              12633073 ( 1 integral passes)



 **********************************************************************************************************************************
 DATASETS  * FILE   NREC   LENGTH (MB)   RECORD NAMES
              1      18        3.17       500      610      700      900      950      970     1000      129      960     1100   
                                          VAR    BASINP    GEOM    SYMINP    ZMAT    AOBASIS   BASIS     P2S    ABASIS      S 
                                         1400     1410     1200     1210     1080     1600     1650     1700   
                                           T        V       H0       H01     AOSYM     SMH    MOLCAS    OPER   

              2       3        0.77       700     1000     2100   
                                         GEOM     BASIS     RHF  

 PROGRAMS   *        TOTAL  UCCSD(T)       RHF       INT
 CPU TIMES  *       199.04    197.24      0.95      0.77
 REAL TIME  *       209.63 SEC
 DISK USED  *         1.29 GB      
 SF USED    *       553.73 MB      
 GA USED    *         0.00 MB       (max)       0.00 MB       (current)
 **********************************************************************************************************************************

        UCCSD(T)        RHF-SCF 
   -268.13349622   -267.26537176
 **********************************************************************************************************************************
 Variable memory released
