
 Primary working directories    : /tmp/320938.320.gen4.q
 Secondary working directories  : /tmp/320938.320.gen4.q
 Wavefunction directory         : /home/vulcan/mel64643/wfu/
 Main file repository           : /tmp/320938.320.gen4.q/

 ARCHNAME  : Linux/x86_64
 FC        : /opt/intel/compilers_and_libraries_2016.1.150/linux/bin/intel64/ifort
 FCVERSION : 16.0.1
 BLASLIB   : -mkl
 id        : ccgc

 Nodes     nprocs
 n033         3
 Number of processes for MPI-2 version of Molpro:   nprocs(total)=    4   nprocs(compute)=    3   nprocs(helper)=    1
 ga_uses_ma=false, calling ma_init with nominal heap.
 GA-space will be limited to   8.0 MW (determined by -G option)

 Using customized tuning parameters: mindgm=10; mindgv=16; mindgc=4; mindgr=1; noblas=0; mincuda=1000; minvec=7
 default implementation of scratch files=sf  

 ***,Frequencies for min3
 memory,1000,m
 gthresh,energy=1.0d-10,orbital=1.0d-10,oneint=1.0d-16,twoint=1.0d-16,optgrad=1.0d-6,compress=1.0d-13
 geomtyp=xyz
 
  geometry = {
  12
  arbitrary comment
     C    1.776964391707    0.711398808326   -0.047331391796
     C    0.491811976407   -0.059992870174   -0.196493901896
     C    0.450332819107   -1.536294019674    0.101417522804
     O   -0.560767745493    0.727234937526    0.254453964104
     O   -1.837477118416    0.092236321120   -0.120526979837
     H    2.584524015223    0.211615056971   -0.611457198580
     H    1.659516304773    1.742998612451   -0.424683288262
     H    2.094626536670    0.774397647124    1.016104506290
     H   -0.505819153808   -1.982830860607   -0.219782538895
     H    1.280899005588   -2.047469023856   -0.417214905557
     H    0.561161331217   -1.718635957096    1.194691145490
     H   -1.988988951391    0.550531765970   -0.967551217990
  }
 
 basis=cc-pvdz
 {rhf;maxit,200}
 {uccsd(t);maxit,200}

 Variables initialized (661), CPU time= 0.00 sec
 Commands  initialized (458), CPU time= 0.01 sec, 486 directives.
 Default parameters read. Elapsed time= 0.06 sec

 Checking input...
 Passed
1


                                         ***  PROGRAM SYSTEM MOLPRO  ***
                         Copyright, University College Cardiff Consultants Limited, 2008

                                    Version 2010.1 linked May 16 2016 07:17:05


 **********************************************************************************************************************************
 LABEL *   Frequencies for min3                                                          
 Linux-4.4.3/n033(x86_64) 64 bit mpp version                                             DATE: 07-Mar-20          TIME: 02:50:50  
 **********************************************************************************************************************************

 SHA1:             9e8077add272b0f3cad6f7df79ec5211205f459d
 **********************************************************************************************************************************

 THRESHOLDS:

 ZERO    =  1.00D-12  ONEINT  =  1.00D-16  TWOINT  =  1.00D-16  PREFAC  =  1.00D-14  LOCALI  =  1.00D-09  EORDER  =  1.00D-04
 ENERGY  =  1.00D-10  ETEST   =  0.00D+00  EDENS   =  0.00D+00  THRDEDEF=  1.00D-06  GRADIENT=  1.00D-02  STEP    =  1.00D-03
 ORBITAL =  1.00D-10  CIVEC   =  1.00D-05  COEFF   =  1.00D-04  PRINTCI =  5.00D-02  PUNCHCI =  9.90D+01  OPTGRAD =  1.00D-06
 OPTENERG=  1.00D-06  OPTSTEP =  3.00D-04  THRGRAD =  1.00D-10  COMPRESS=  1.00D-13  VARMIN  =  1.00D-07  VARMAX  =  1.00D-03
 THRDOUB =  0.00D+00  THRDIV  =  1.00D-05  THRRED  =  1.00D-07  THRPSP  =  1.00D+00  THRDC   =  1.00D-10  THRCS   =  1.00D-10
 THRNRM  =  1.00D-08  THREQ   =  0.00D+00  THRDE   =  1.00D+00  THRREF  =  1.00D-05  SPARFAC =  1.00D+00  THRDLP  =  1.00D-07
 THRDIA  =  1.00D-10  THRDLS  =  1.00D-07  THRGPS  =  0.00D+00  THRKEX  =  0.00D+00  THRDIS  =  2.00D-01  THRVAR  =  1.00D-10
 THRLOC  =  1.00D-06  THRGAP  =  1.00D-06  THRLOCT = -1.00D+00  THRGAPT = -1.00D+00  THRORB  =  1.00D-06  THRMLTP =  0.00D+00
 THRCPQCI=  1.00D-10  KEXTA   =  0.00D+00  THRCOARS=  0.00D+00  SYMTOL  =  1.00D-06  GRADTOL =  1.00D-06  THROVL  =  1.00D-08
 THRORTH =  1.00D-08  GRID    =  1.00D-06  GRIDMAX =  1.00D-03  DTMAX   =  0.00D+00

 SETTING GEOMTYP        =    XYZ

 Variable memory set to 1000000000 words,  buffer space   230000 words

 SETTING BASIS          =    CC-PVDZ


 Recomputing integrals since basis changed


 Using spherical harmonics

 Library entry C      S cc-pVDZ              selected for orbital group  1
 Library entry C      P cc-pVDZ              selected for orbital group  1
 Library entry C      D cc-pVDZ              selected for orbital group  1
 Library entry O      S cc-pVDZ              selected for orbital group  2
 Library entry O      P cc-pVDZ              selected for orbital group  2
 Library entry O      D cc-pVDZ              selected for orbital group  2
 Library entry H      S cc-pVDZ              selected for orbital group  3
 Library entry H      P cc-pVDZ              selected for orbital group  3

1PROGRAM * SEWARD (Integral evaluation for generally contracted gaussian basis sets)     Author: Roland Lindh, 1990

 Geometry written to block  1 of record 700


 Point group  C1  



 ATOMIC COORDINATES

 NR  ATOM    CHARGE       X              Y              Z

   1  C       6.00    3.357976046    1.344348918   -0.089443368
   2  C       6.00    0.929389944   -0.113370094   -0.371319661
   3  C       6.00    0.851005696   -2.903174955    0.191651343
   4  O       8.00   -1.059697462    1.374274865    0.480848305
   5  O       8.00   -3.472328527    0.174301386   -0.227762983
   6  H       1.00    4.884042569    0.399894503   -1.155486646
   7  H       1.00    3.136031327    3.293790025   -0.802535107
   8  H       1.00    3.958270502    1.463399470    1.920159238
   9  H       1.00   -0.955859673   -3.747007291   -0.415328807
  10  H       1.00    2.420548323   -3.869155718   -0.788421909
  11  H       1.00    1.060441232   -3.247751279    2.257639077
  12  H       1.00   -3.758644397    1.040354264   -1.828406820

 Bond lengths in Bohr (Angstrom)

 1-2  2.846476668  1-6  2.087419806  1-7  2.087601475  1-8  2.100721091  2-3  2.847119878
     ( 1.506290578)     ( 1.104614987)     ( 1.104711122)     ( 1.111653724)     ( 1.506630951)

  2- 4  2.625975338   3- 9  2.084524017   3-10  2.087373103   3-11  2.104970642   4- 5  2.786190044
       ( 1.389606300)       ( 1.103082601)       ( 1.104590273)       ( 1.113902489)       ( 1.474388271)

  5-12  1.842304279
       ( 0.974905437)

 Bond angles

  1-2-3  120.37866573   1-2-4  108.90555081   2-1-6  109.96644771   2-1-7  110.71304091

  2- 1- 8  111.56507962   2- 3- 9  111.28123692   2- 3-10  109.87171854   2- 3-11  110.59338130

  2- 4- 5  109.23153022   3- 2- 4  118.03986083   4- 5-12   98.80554107   6- 1- 7  109.01314769

  6- 1- 8  107.77490854   7- 1- 8  107.71170905   9- 3-10  109.13006936   9- 3-11  107.80441534

 10- 3-11  108.07501648

 NUCLEAR CHARGE:                   41
 NUMBER OF PRIMITIVE AOS:         184
 NUMBER OF SYMMETRY AOS:          179
 NUMBER OF CONTRACTIONS:          105   ( 105A   )
 NUMBER OF CORE ORBITALS:           5   (   5A   )
 NUMBER OF VALENCE ORBITALS:       27   (  27A   )


 NUCLEAR REPULSION ENERGY  183.24065879


 Eigenvalues of metric

         1 0.345E-02 0.435E-02 0.105E-01 0.141E-01 0.182E-01 0.214E-01 0.331E-01 0.345E-01


 Contracted 2-electron integrals neglected if value below      1.0D-16
 AO integral compression algorithm  1   Integral accuracy      1.0D-16

     127.664 MB (compressed) written to integral file ( 93.2%)

     Node minimum: 41.157 MB, node maximum: 44.040 MB


 NUMBER OF SORTED TWO-ELECTRON INTEGRALS:    5164320.     BUFFER LENGTH:  32768
 NUMBER OF SEGMENTS:   1  SEGMENT LENGTH:    5164320      RECORD LENGTH: 524288

 Memory used in sort:       5.72 MW

 SORT1 READ    17075467. AND WROTE     5135959. INTEGRALS IN     15 RECORDS. CPU TIME:     0.23 SEC, REAL TIME:     0.27 SEC
 SORT2 READ    15396818. AND WROTE    15487395. INTEGRALS IN    486 RECORDS. CPU TIME:     0.07 SEC, REAL TIME:     0.12 SEC

 Node minimum:     5160610.  Node maximum:     5164320. integrals

 OPERATOR DM      FOR CENTER  0  COORDINATES:    0.000000    0.000000    0.000000


 **********************************************************************************************************************************
 DATASETS  * FILE   NREC   LENGTH (MB)   RECORD NAMES
              1      18        3.17       500      610      700      900      950      970     1000      129      960     1100   
                                          VAR    BASINP    GEOM    SYMINP    ZMAT    AOBASIS   BASIS     P2S    ABASIS      S 
                                         1400     1410     1200     1210     1080     1600     1650     1700   
                                           T        V       H0       H01     AOSYM     SMH    MOLCAS    OPER   

 PROGRAMS   *        TOTAL       INT
 CPU TIMES  *         1.26      1.20
 REAL TIME  *         1.55 SEC
 DISK USED  *       305.76 MB      
 GA USED    *         0.00 MB       (max)       0.00 MB       (current)
 **********************************************************************************************************************************

1PROGRAM * RHF-SCF (OPEN SHELL)       Authors: W. Meyer, H.-J. Werner


 NUMBER OF ELECTRONS:      21+   20-    SPACE SYMMETRY=1    SPIN SYMMETRY: Doublet 
 CONVERGENCE THRESHOLDS:    1.00E-10 (Density)    1.00E-11 (Energy)
 MAX. NUMBER OF ITERATIONS:      200
 INTERPOLATION TYPE:            DIIS
 INTERPOLATION STEPS:              2 (START)      1 (STEP)
 LEVEL SHIFTS:                 -0.30 (CLOSED)  0.00 (OPEN) 



 Orbital guess generated from atomic densities. Full valence occupancy:   32

 Molecular orbital dump at record        2100.2

 ITERATION    DDIFF          GRAD             ENERGY        2-EL.EN.            DIPOLE MOMENTS         DIIS
    1      0.000D+00      0.000D+00      -267.17832956    555.855721    0.56635    0.04978   -0.74954    0
    2      0.000D+00      0.617D-02      -267.24901024    555.777443    0.41289   -0.13086   -0.59886    1
    3      0.927D-02      0.214D-02      -267.26117509    555.695160    0.39286   -0.05901   -0.62595    2
    4      0.336D-02      0.912D-03      -267.26477519    555.847460    0.37863   -0.09915   -0.64225    3
    5      0.186D-02      0.363D-03      -267.26534208    555.818855    0.38129   -0.09266   -0.63517    4
    6      0.791D-03      0.110D-03      -267.26541806    555.805055    0.37959   -0.09246   -0.63789    5
    7      0.277D-03      0.509D-04      -267.26543803    555.802078    0.37890   -0.09220   -0.63737    6
    8      0.143D-03      0.271D-04      -267.26544404    555.800118    0.37919   -0.09232   -0.63758    7
    9      0.920D-04      0.115D-04      -267.26544495    555.800439    0.37937   -0.09227   -0.63734    8
   10      0.364D-04      0.499D-05      -267.26544510    555.801047    0.37963   -0.09229   -0.63740    9
   11      0.146D-04      0.196D-05      -267.26544513    555.800889    0.37968   -0.09228   -0.63741    9
   12      0.648D-05      0.669D-06      -267.26544513    555.801023    0.37970   -0.09228   -0.63741    9
   13      0.227D-05      0.226D-06      -267.26544513    555.800939    0.37970   -0.09228   -0.63740    9
   14      0.632D-06      0.755D-07      -267.26544513    555.800948    0.37970   -0.09228   -0.63740    9
   15      0.192D-06      0.299D-07      -267.26544513    555.800944    0.37970   -0.09228   -0.63740    9
   16      0.822D-07      0.144D-07      -267.26544513    555.800946    0.37970   -0.09228   -0.63740    9
   17      0.372D-07      0.748D-08      -267.26544513    555.800946    0.37970   -0.09228   -0.63740    9
   18      0.221D-07      0.340D-08      -267.26544513    555.800946    0.37970   -0.09228   -0.63740    9
   19      0.114D-07      0.133D-08      -267.26544513    555.800946    0.37970   -0.09228   -0.63740    9
   20      0.442D-08      0.564D-09      -267.26544513    555.800946    0.37970   -0.09228   -0.63740    9
   21      0.165D-08      0.284D-09      -267.26544513    555.800946    0.37970   -0.09228   -0.63740    9
   22      0.748D-09      0.160D-09      -267.26544513    555.800946    0.37970   -0.09228   -0.63740    9
   23      0.442D-09      0.790D-10      -267.26544513    555.800946    0.37970   -0.09228   -0.63740    9
   24      0.261D-09      0.314D-10      -267.26544513    555.800946    0.37970   -0.09228   -0.63740    9
   25      0.925D-10      0.128D-10      -267.26544513    555.800946    0.37970   -0.09228   -0.63740    0

 Final alpha occupancy:  21
 Final beta  occupancy:  20

 !RHF STATE 1.1 Energy               -267.265445131406
 Nuclear energy                       183.24065879
 One-electron energy                 -728.40657679
 Two-electron energy                  277.90047287
 Virial quotient                       -1.00154338
 !RHF STATE 1.1 Dipole moment           0.37970069    -0.09228378    -0.63740386
 Dipole moment /Debye                   0.96503969    -0.23454660    -1.62001290

 Orbital energies:

         1.1          2.1          3.1          4.1          5.1          6.1          7.1          8.1          9.1         10.1
    -20.630441   -20.628775   -11.279192   -11.237566   -11.232151    -1.470167    -1.240565    -1.023276    -0.945468    -0.768516

        11.1         12.1         13.1         14.1         15.1         16.1         17.1         18.1         19.1         20.1
     -0.704510    -0.643006    -0.626810    -0.588873    -0.545112    -0.543427    -0.539306    -0.516890    -0.492923    -0.469711

        21.1         22.1         23.1
     -0.352257     0.181272     0.183593


 **********************************************************************************************************************************
 DATASETS  * FILE   NREC   LENGTH (MB)   RECORD NAMES
              1      18        3.17       500      610      700      900      950      970     1000      129      960     1100   
                                          VAR    BASINP    GEOM    SYMINP    ZMAT    AOBASIS   BASIS     P2S    ABASIS      S 
                                         1400     1410     1200     1210     1080     1600     1650     1700   
                                           T        V       H0       H01     AOSYM     SMH    MOLCAS    OPER   

              2       3        0.77       700     1000     2100   
                                         GEOM     BASIS     RHF  

 PROGRAMS   *        TOTAL       RHF       INT
 CPU TIMES  *         2.78      1.52      1.20
 REAL TIME  *         3.23 SEC
 DISK USED  *       322.33 MB      
 SF USED    *         0.04 MB      
 GA USED    *         0.00 MB       (max)       0.00 MB       (current)
 **********************************************************************************************************************************


1PROGRAM * CCSD (Unrestricted open-shell coupled cluster)     Authors: C. Hampel, H.-J. Werner, 1991, M. Deegan, P.J. Knowles, 1992


 Convergence thresholds:  THRVAR = 1.00D-08  THRDEN = 1.00D-10

 CCSD(T)     terms to be evaluated (factor= 1.000)


 Number of core orbitals:           5 (   5 )
 Number of closed-shell orbitals:  15 (  15 )
 Number of active  orbitals:        1 (   1 )
 Number of external orbitals:      84 (  84 )

 Memory could be reduced to 24.91 Mwords without degradation in triples

 Number of N-1 electron functions:              31
 Number of N-2 electron functions:             465
 Number of singly external CSFs:              2635
 Number of doubly external CSFs:           2537250
 Total number of CSFs:                     2539885

 Molecular orbitals read from record     2100.2  Type=RHF/CANONICAL (state 1.1)

 Integral transformation finished. Total CPU:   1.60 sec, npass=  1  Memory used:  12.63 MW

 Starting RMP2 calculation

 ITER.      SQ.NORM     CORR.ENERGY   TOTAL ENERGY   ENERGY CHANGE        DEN1      VAR(S)    VAR(P)  DIIS     TIME
   1      1.24297769    -0.78633557  -268.05178070    -0.78633557    -0.00304869  0.20D-04  0.11D-02  1  1     2.08
   2      1.24561739    -0.78962333  -268.05506846    -0.00328776    -0.00000474  0.54D-06  0.19D-05  2  2     2.50
   3      1.24568285    -0.78966535  -268.05511048    -0.00004201    -0.00000003  0.16D-07  0.67D-08  3  3     2.95
   4      1.24568380    -0.78966535  -268.05511048    -0.00000000    -0.00000000  0.27D-09  0.38D-10  4  4     3.44
   5      1.24568389    -0.78966538  -268.05511051    -0.00000003    -0.00000000  0.25D-11  0.65D-12  5  5     3.87
   6      1.24568390    -0.78966539  -268.05511052    -0.00000001    -0.00000000  0.28D-13  0.86D-14  6  6     4.32
   7      1.24568390    -0.78966539  -268.05511052     0.00000000    -0.00000000  0.47D-15  0.12D-15  6  1     4.78
   8      1.24568390    -0.78966539  -268.05511052     0.00000000    -0.00000000  0.59D-17  0.13D-17  6  2     5.24

 Norm of t1 vector:      0.03892161      S-energy:    -0.00227086      T1 diagnostic:  0.00054997
 Norm of t2 vector:      0.49413460      P-energy:    -0.78739452
                                         Alpha-Beta:  -0.59337753
                                         Alpha-Alpha: -0.10093951
                                         Beta-Beta:   -0.09307748

 Spin contamination <S**2-Sz**2-Sz>     0.00103990
  Reference energy                   -267.265445131406
  RHF-RMP2 correlation energy          -0.789665386663
 !RHF-RMP2 energy                    -268.055110518069

 Starting UCCSD calculation

 ITER.      SQ.NORM     CORR.ENERGY   TOTAL ENERGY   ENERGY CHANGE        DEN1      VAR(S)    VAR(P)  DIIS     TIME
   1      1.26274852    -0.80901323  -268.07445836    -0.80901323    -0.02514836  0.38D-02  0.59D-02  1  1    12.00
   2      1.29150749    -0.83641490  -268.10186004    -0.02740168    -0.00200958  0.22D-03  0.66D-03  2  2    18.71
   3      1.30143956    -0.84090969  -268.10635483    -0.00449479    -0.00032438  0.19D-03  0.56D-04  3  3    25.44
   4      1.30634766    -0.84238562  -268.10783075    -0.00147593    -0.00007202  0.43D-04  0.14D-04  4  4    32.23
   5      1.30907486    -0.84277344  -268.10821857    -0.00038781    -0.00002364  0.19D-04  0.32D-05  5  5    39.02
   6      1.31101129    -0.84297768  -268.10842281    -0.00020424    -0.00000644  0.42D-05  0.12D-05  6  6    45.85
   7      1.31195889    -0.84303638  -268.10848151    -0.00005871    -0.00000207  0.14D-05  0.37D-06  6  2    52.78
   8      1.31239933    -0.84307898  -268.10852411    -0.00004260    -0.00000065  0.45D-06  0.11D-06  6  1    59.63
   9      1.31258385    -0.84308353  -268.10852867    -0.00000455    -0.00000022  0.15D-06  0.35D-07  6  4    66.45
  10      1.31264669    -0.84308645  -268.10853158    -0.00000291    -0.00000005  0.34D-07  0.95D-08  6  3    73.28
  11      1.31267602    -0.84308518  -268.10853032     0.00000126    -0.00000002  0.13D-07  0.28D-08  6  5    80.12
  12      1.31268635    -0.84308492  -268.10853005     0.00000026    -0.00000000  0.26D-08  0.95D-09  6  6    86.95
  13      1.31268520    -0.84308401  -268.10852914     0.00000091    -0.00000000  0.96D-09  0.28D-09  6  2    93.80
  14      1.31268001    -0.84308317  -268.10852830     0.00000084    -0.00000000  0.21D-09  0.67D-10  6  1   100.63
  15      1.31267594    -0.84308258  -268.10852771     0.00000058    -0.00000000  0.78D-10  0.19D-10  6  4   107.49
  16      1.31267277    -0.84308220  -268.10852733     0.00000038    -0.00000000  0.28D-10  0.62D-11  6  3   114.31
  17      1.31267057    -0.84308196  -268.10852709     0.00000024    -0.00000000  0.10D-10  0.24D-11  6  5   121.13
  18      1.31266967    -0.84308190  -268.10852703     0.00000006    -0.00000000  0.40D-11  0.86D-12  6  6   127.98
  19      1.31266906    -0.84308187  -268.10852700     0.00000003    -0.00000000  0.16D-11  0.37D-12  6  2   134.86
  20      1.31266875    -0.84308186  -268.10852699     0.00000001    -0.00000000  0.59D-12  0.13D-12  6  1   141.70
  21      1.31266858    -0.84308185  -268.10852698     0.00000001    -0.00000000  0.28D-12  0.57D-13  6  4   148.53
  22      1.31266846    -0.84308184  -268.10852697     0.00000001    -0.00000000  0.73D-13  0.21D-13  6  3   155.35
  23      1.31266841    -0.84308184  -268.10852697     0.00000000    -0.00000000  0.21D-13  0.62D-14  6  5   162.16
  24      1.31266840    -0.84308184  -268.10852697    -0.00000000    -0.00000000  0.67D-14  0.22D-14  6  6   169.02
  25      1.31266840    -0.84308184  -268.10852697    -0.00000000    -0.00000000  0.21D-14  0.52D-15  6  2   175.87
  26      1.31266841    -0.84308184  -268.10852697    -0.00000000    -0.00000000  0.76D-15  0.15D-15  6  1   182.69
  27      1.31266842    -0.84308184  -268.10852697    -0.00000000    -0.00000000  0.20D-15  0.62D-16  6  3   189.51
  28      1.31266843    -0.84308184  -268.10852697    -0.00000000    -0.00000000  0.29D-16  0.11D-16  6  4   196.31
  29      1.31266843    -0.84308184  -268.10852697    -0.00000000    -0.00000000  0.70D-17  0.29D-17  6  5   206.51
  30      1.31266843    -0.84308184  -268.10852697    -0.00000000    -0.00000000  0.15D-17  0.53D-18  6  6   216.22
  31      1.31266843    -0.84308184  -268.10852697    -0.00000000    -0.00000000  0.35D-18  0.10D-18  6  2   225.77

 Norm of t1 vector:      0.13865861      S-energy:    -0.00282001      T1 diagnostic:  0.01616271
                                                                       D1 diagnostic:  0.06279448
 Norm of t2 vector:      0.54170307      P-energy:    -0.84026183
                                         Alpha-Beta:  -0.66481406
                                         Alpha-Alpha: -0.09147592
                                         Beta-Beta:   -0.08397184

 Spin contamination <S**2-Sz**2-Sz>     0.00216809

 Memory could be reduced to 28.85 Mwords without degradation in triples
 

 RESULTS
 =======

  Reference energy                   -267.265445131406
  UCCSD singles energy                 -0.002820014159
  UCCSD pair energy                    -0.840261825445
  UCCSD correlation energy             -0.843081839604
  Triples (T) contribution             -0.024967445957
  Total correlation energy             -0.868049285561
 
  RHF-UCCSD energy                   -268.108526971010
  RHF-UCCSD[T] energy                -268.134829533574
  RHF-UCCSD-T energy                 -268.133072986728
 !RHF-UCCSD(T) energy                -268.133494416967

 Program statistics:

 Available memory in ccsd:               999997692
 Min. memory needed in ccsd:               7337057
 Max. memory used in ccsd:                10523002
 Max. memory used in cckext:              10867977 (31 integral passes)
 Max. memory used in cckint:              12633073 ( 1 integral passes)



 **********************************************************************************************************************************
 DATASETS  * FILE   NREC   LENGTH (MB)   RECORD NAMES
              1      18        3.17       500      610      700      900      950      970     1000      129      960     1100   
                                          VAR    BASINP    GEOM    SYMINP    ZMAT    AOBASIS   BASIS     P2S    ABASIS      S 
                                         1400     1410     1200     1210     1080     1600     1650     1700   
                                           T        V       H0       H01     AOSYM     SMH    MOLCAS    OPER   

              2       3        0.77       700     1000     2100   
                                         GEOM     BASIS     RHF  

 PROGRAMS   *        TOTAL  UCCSD(T)       RHF       INT
 CPU TIMES  *       306.74    303.96      1.52      1.20
 REAL TIME  *       320.12 SEC
 DISK USED  *         1.29 GB      
 SF USED    *       553.73 MB      
 GA USED    *         0.00 MB       (max)       0.00 MB       (current)
 **********************************************************************************************************************************

        UCCSD(T)        RHF-SCF 
   -268.13349442   -267.26544513
 **********************************************************************************************************************************
 Variable memory released
