
 Primary working directories    : /tmp/320938.25.gen4.q
 Secondary working directories  : /tmp/320938.25.gen4.q
 Wavefunction directory         : /home/vulcan/mel64643/wfu/
 Main file repository           : /tmp/320938.25.gen4.q/

 ARCHNAME  : Linux/x86_64
 FC        : /opt/intel/compilers_and_libraries_2016.1.150/linux/bin/intel64/ifort
 FCVERSION : 16.0.1
 BLASLIB   : -mkl
 id        : ccgc

 Nodes     nprocs
 n036         3
 Number of processes for MPI-2 version of Molpro:   nprocs(total)=    4   nprocs(compute)=    3   nprocs(helper)=    1
 ga_uses_ma=false, calling ma_init with nominal heap.
 GA-space will be limited to   8.0 MW (determined by -G option)

 Using customized tuning parameters: mindgm=10; mindgv=16; mindgc=4; mindgr=1; noblas=0; mincuda=1000; minvec=7
 default implementation of scratch files=sf  

 ***,Frequencies for min3
 memory,1000,m
 gthresh,energy=1.0d-10,orbital=1.0d-10,oneint=1.0d-16,twoint=1.0d-16,optgrad=1.0d-6,compress=1.0d-13
 geomtyp=xyz
 
  geometry = {
  12
  arbitrary comment
     C    1.776964391707    0.710796989572   -0.047322446502
     C    0.491803053583   -0.059776892665   -0.196494422871
     C    0.450499919776   -1.536086466232    0.100973171465
     O   -0.560885030896    0.727389341464    0.254462306145
     O   -1.837851942705    0.092171827295   -0.120457296789
     H    2.585410124334    0.211614400570   -0.610868214437
     H    1.660296391357    1.743013856385   -0.426608065143
     H    2.094908635806    0.774719954376    1.017966527174
     H   -0.504675051562   -1.982782436698   -0.219121224277
     H    1.282120301475   -2.047111307212   -0.415954833604
     H    0.561783148168   -1.718579995233    1.195744812781
     H   -1.987997719884    0.550428672374   -0.967100306398
  }
 
 basis=cc-pvdz
 {rhf;maxit,200}
 {uccsd(t);maxit,200}

 Variables initialized (661), CPU time= 0.00 sec
 Commands  initialized (458), CPU time= 0.01 sec, 486 directives.
 Default parameters read. Elapsed time= 0.05 sec

 Checking input...
 Passed
1


                                         ***  PROGRAM SYSTEM MOLPRO  ***
                         Copyright, University College Cardiff Consultants Limited, 2008

                                    Version 2010.1 linked May 16 2016 07:17:05


 **********************************************************************************************************************************
 LABEL *   Frequencies for min3                                                          
 Linux-4.4.3/n036(x86_64) 64 bit mpp version                                             DATE: 07-Mar-20          TIME: 01:05:35  
 **********************************************************************************************************************************

 SHA1:             9e8077add272b0f3cad6f7df79ec5211205f459d
 **********************************************************************************************************************************

 THRESHOLDS:

 ZERO    =  1.00D-12  ONEINT  =  1.00D-16  TWOINT  =  1.00D-16  PREFAC  =  1.00D-14  LOCALI  =  1.00D-09  EORDER  =  1.00D-04
 ENERGY  =  1.00D-10  ETEST   =  0.00D+00  EDENS   =  0.00D+00  THRDEDEF=  1.00D-06  GRADIENT=  1.00D-02  STEP    =  1.00D-03
 ORBITAL =  1.00D-10  CIVEC   =  1.00D-05  COEFF   =  1.00D-04  PRINTCI =  5.00D-02  PUNCHCI =  9.90D+01  OPTGRAD =  1.00D-06
 OPTENERG=  1.00D-06  OPTSTEP =  3.00D-04  THRGRAD =  1.00D-10  COMPRESS=  1.00D-13  VARMIN  =  1.00D-07  VARMAX  =  1.00D-03
 THRDOUB =  0.00D+00  THRDIV  =  1.00D-05  THRRED  =  1.00D-07  THRPSP  =  1.00D+00  THRDC   =  1.00D-10  THRCS   =  1.00D-10
 THRNRM  =  1.00D-08  THREQ   =  0.00D+00  THRDE   =  1.00D+00  THRREF  =  1.00D-05  SPARFAC =  1.00D+00  THRDLP  =  1.00D-07
 THRDIA  =  1.00D-10  THRDLS  =  1.00D-07  THRGPS  =  0.00D+00  THRKEX  =  0.00D+00  THRDIS  =  2.00D-01  THRVAR  =  1.00D-10
 THRLOC  =  1.00D-06  THRGAP  =  1.00D-06  THRLOCT = -1.00D+00  THRGAPT = -1.00D+00  THRORB  =  1.00D-06  THRMLTP =  0.00D+00
 THRCPQCI=  1.00D-10  KEXTA   =  0.00D+00  THRCOARS=  0.00D+00  SYMTOL  =  1.00D-06  GRADTOL =  1.00D-06  THROVL  =  1.00D-08
 THRORTH =  1.00D-08  GRID    =  1.00D-06  GRIDMAX =  1.00D-03  DTMAX   =  0.00D+00

 SETTING GEOMTYP        =    XYZ

 Variable memory set to 1000000000 words,  buffer space   230000 words

 SETTING BASIS          =    CC-PVDZ


 Recomputing integrals since basis changed


 Using spherical harmonics

 Library entry C      S cc-pVDZ              selected for orbital group  1
 Library entry C      P cc-pVDZ              selected for orbital group  1
 Library entry C      D cc-pVDZ              selected for orbital group  1
 Library entry O      S cc-pVDZ              selected for orbital group  2
 Library entry O      P cc-pVDZ              selected for orbital group  2
 Library entry O      D cc-pVDZ              selected for orbital group  2
 Library entry H      S cc-pVDZ              selected for orbital group  3
 Library entry H      P cc-pVDZ              selected for orbital group  3

1PROGRAM * SEWARD (Integral evaluation for generally contracted gaussian basis sets)     Author: Roland Lindh, 1990

 Geometry written to block  1 of record 700


 Point group  C1  



 ATOMIC COORDINATES

 NR  ATOM    CHARGE       X              Y              Z

   1  C       6.00    3.357976046    1.343211645   -0.089426464
   2  C       6.00    0.929373082   -0.112961956   -0.371320646
   3  C       6.00    0.851321471   -2.902782735    0.190811641
   4  O       8.00   -1.059919100    1.374566646    0.480864069
   5  O       8.00   -3.473036842    0.174179511   -0.227631301
   6  H       1.00    4.885717072    0.399893263   -1.154373628
   7  H       1.00    3.137505477    3.293818832   -0.806172409
   8  H       1.00    3.958803592    1.464008542    1.923677947
   9  H       1.00   -0.953697633   -3.746915784   -0.414079103
  10  H       1.00    2.422856237   -3.868479731   -0.786040719
  11  H       1.00    1.061616295   -3.247645526    2.259630219
  12  H       1.00   -3.756771240    1.040159446   -1.827554721

 Bond lengths in Bohr (Angstrom)

 1-2  2.845701714  1-6  2.087571479  1-7  2.089784778  1-8  2.104322932  2-3  2.846960615
     ( 1.505880490)     ( 1.104695249)     ( 1.105866476)     ( 1.113559736)     ( 1.506546672)

  2- 4  2.626069975   3- 9  2.082437845   3-10  2.087230879   3-11  2.107881536   4- 5  2.786760163
       ( 1.389656380)       ( 1.101978647)       ( 1.104515011)       ( 1.115442868)       ( 1.474689965)

  5-12  1.841244526
       ( 0.974344639)

 Bond angles

  1-2-3  120.34978645   1-2-4  108.93433505   2-1-6  110.04754708   2-1-7  110.70885466

  2- 1- 8  111.58069647   2- 3- 9  111.32342346   2- 3-10  109.89708051   2- 3-11  110.57164631

  2- 4- 5  109.23562157   3- 2- 4  118.04958589   4- 5-12   98.72910316   6- 1- 7  108.90631537

  6- 1- 8  107.75883349   7- 1- 8  107.73708852   9- 3-10  109.21614085   9- 3-11  107.77293891

 10- 3-11  107.97055700

 NUCLEAR CHARGE:                   41
 NUMBER OF PRIMITIVE AOS:         184
 NUMBER OF SYMMETRY AOS:          179
 NUMBER OF CONTRACTIONS:          105   ( 105A   )
 NUMBER OF CORE ORBITALS:           5   (   5A   )
 NUMBER OF VALENCE ORBITALS:       27   (  27A   )


 NUCLEAR REPULSION ENERGY  183.22727680


 Eigenvalues of metric

         1 0.345E-02 0.435E-02 0.105E-01 0.141E-01 0.182E-01 0.214E-01 0.331E-01 0.345E-01


 Contracted 2-electron integrals neglected if value below      1.0D-16
 AO integral compression algorithm  1   Integral accuracy      1.0D-16

     127.664 MB (compressed) written to integral file ( 93.2%)

     Node minimum: 34.603 MB, node maximum: 55.837 MB


 NUMBER OF SORTED TWO-ELECTRON INTEGRALS:    5164320.     BUFFER LENGTH:  32768
 NUMBER OF SEGMENTS:   1  SEGMENT LENGTH:    5164320      RECORD LENGTH: 524288

 Memory used in sort:       5.72 MW

 SORT1 READ    17075251. AND WROTE     5135931. INTEGRALS IN     15 RECORDS. CPU TIME:     0.33 SEC, REAL TIME:     0.39 SEC
 SORT2 READ    15396679. AND WROTE    15487395. INTEGRALS IN    426 RECORDS. CPU TIME:     0.11 SEC, REAL TIME:     0.16 SEC

 Node minimum:     5160610.  Node maximum:     5164320. integrals

 OPERATOR DM      FOR CENTER  0  COORDINATES:    0.000000    0.000000    0.000000


 **********************************************************************************************************************************
 DATASETS  * FILE   NREC   LENGTH (MB)   RECORD NAMES
              1      18        3.17       500      610      700      900      950      970     1000      129      960     1100   
                                          VAR    BASINP    GEOM    SYMINP    ZMAT    AOBASIS   BASIS     P2S    ABASIS      S 
                                         1400     1410     1200     1210     1080     1600     1650     1700   
                                           T        V       H0       H01     AOSYM     SMH    MOLCAS    OPER   

 PROGRAMS   *        TOTAL       INT
 CPU TIMES  *         1.62      1.56
 REAL TIME  *         2.04 SEC
 DISK USED  *       317.55 MB      
 GA USED    *         0.00 MB       (max)       0.00 MB       (current)
 **********************************************************************************************************************************

1PROGRAM * RHF-SCF (OPEN SHELL)       Authors: W. Meyer, H.-J. Werner


 NUMBER OF ELECTRONS:      21+   20-    SPACE SYMMETRY=1    SPIN SYMMETRY: Doublet 
 CONVERGENCE THRESHOLDS:    1.00E-10 (Density)    1.00E-11 (Energy)
 MAX. NUMBER OF ITERATIONS:      200
 INTERPOLATION TYPE:            DIIS
 INTERPOLATION STEPS:              2 (START)      1 (STEP)
 LEVEL SHIFTS:                 -0.30 (CLOSED)  0.00 (OPEN) 



 Orbital guess generated from atomic densities. Full valence occupancy:   32

 Molecular orbital dump at record        2100.2

 ITERATION    DDIFF          GRAD             ENERGY        2-EL.EN.            DIPOLE MOMENTS         DIIS
    1      0.000D+00      0.000D+00      -267.17823724    555.827238    0.56993    0.05046   -0.74791    0
    2      0.000D+00      0.617D-02      -267.24890965    555.748299    0.41424   -0.13113   -0.59880    1
    3      0.927D-02      0.214D-02      -267.26108597    555.665954    0.39384   -0.05927   -0.62627    2
    4      0.336D-02      0.912D-03      -267.26469428    555.818300    0.37927   -0.09960   -0.64288    3
    5      0.186D-02      0.364D-03      -267.26526364    555.789703    0.38182   -0.09320   -0.63595    4
    6      0.793D-03      0.110D-03      -267.26534011    555.775929    0.38009   -0.09302   -0.63871    5
    7      0.277D-03      0.511D-04      -267.26536025    555.772939    0.37939   -0.09277   -0.63821    6
    8      0.144D-03      0.273D-04      -267.26536631    555.770983    0.37966   -0.09289   -0.63842    7
    9      0.925D-04      0.115D-04      -267.26536723    555.771309    0.37985   -0.09284   -0.63818    8
   10      0.366D-04      0.501D-05      -267.26536738    555.771916    0.38011   -0.09285   -0.63824    9
   11      0.146D-04      0.196D-05      -267.26536741    555.771757    0.38016   -0.09285   -0.63825    9
   12      0.651D-05      0.671D-06      -267.26536741    555.771892    0.38018   -0.09285   -0.63824    9
   13      0.227D-05      0.226D-06      -267.26536741    555.771807    0.38018   -0.09285   -0.63824    9
   14      0.632D-06      0.758D-07      -267.26536741    555.771816    0.38018   -0.09285   -0.63824    9
   15      0.193D-06      0.300D-07      -267.26536741    555.771812    0.38018   -0.09285   -0.63824    9
   16      0.825D-07      0.145D-07      -267.26536741    555.771814    0.38018   -0.09285   -0.63824    9
   17      0.374D-07      0.750D-08      -267.26536741    555.771814    0.38018   -0.09285   -0.63824    9
   18      0.222D-07      0.342D-08      -267.26536741    555.771814    0.38018   -0.09285   -0.63824    9
   19      0.114D-07      0.133D-08      -267.26536741    555.771814    0.38018   -0.09285   -0.63824    9
   20      0.444D-08      0.566D-09      -267.26536741    555.771814    0.38018   -0.09285   -0.63824    9
   21      0.165D-08      0.286D-09      -267.26536741    555.771814    0.38018   -0.09285   -0.63824    9
   22      0.753D-09      0.162D-09      -267.26536741    555.771814    0.38018   -0.09285   -0.63824    9
   23      0.446D-09      0.795D-10      -267.26536741    555.771814    0.38018   -0.09285   -0.63824    9
   24      0.263D-09      0.316D-10      -267.26536741    555.771814    0.38018   -0.09285   -0.63824    9
   25      0.931D-10      0.129D-10      -267.26536741    555.771814    0.38018   -0.09285   -0.63824    0

 Final alpha occupancy:  21
 Final beta  occupancy:  20

 !RHF STATE 1.1 Energy               -267.265367413569
 Nuclear energy                       183.22727680
 One-electron energy                 -728.37855104
 Two-electron energy                  277.88590683
 Virial quotient                       -1.00155666
 !RHF STATE 1.1 Dipole moment           0.38018358    -0.09285294    -0.63824165
 Dipole moment /Debye                   0.96626698    -0.23599318    -1.62214222

 Orbital energies:

         1.1          2.1          3.1          4.1          5.1          6.1          7.1          8.1          9.1         10.1
    -20.630512   -20.628848   -11.279264   -11.237896   -11.232218    -1.470187    -1.240745    -1.023301    -0.945319    -0.768489

        11.1         12.1         13.1         14.1         15.1         16.1         17.1         18.1         19.1         20.1
     -0.704624    -0.643084    -0.626767    -0.588744    -0.544944    -0.543528    -0.538955    -0.516897    -0.493066    -0.469867

        21.1         22.1         23.1
     -0.352230     0.181291     0.183534


 **********************************************************************************************************************************
 DATASETS  * FILE   NREC   LENGTH (MB)   RECORD NAMES
              1      18        3.17       500      610      700      900      950      970     1000      129      960     1100   
                                          VAR    BASINP    GEOM    SYMINP    ZMAT    AOBASIS   BASIS     P2S    ABASIS      S 
                                         1400     1410     1200     1210     1080     1600     1650     1700   
                                           T        V       H0       H01     AOSYM     SMH    MOLCAS    OPER   

              2       3        0.77       700     1000     2100   
                                         GEOM     BASIS     RHF  

 PROGRAMS   *        TOTAL       RHF       INT
 CPU TIMES  *         3.60      1.98      1.56
 REAL TIME  *         4.16 SEC
 DISK USED  *       334.11 MB      
 SF USED    *         0.04 MB      
 GA USED    *         0.00 MB       (max)       0.00 MB       (current)
 **********************************************************************************************************************************


1PROGRAM * CCSD (Unrestricted open-shell coupled cluster)     Authors: C. Hampel, H.-J. Werner, 1991, M. Deegan, P.J. Knowles, 1992


 Convergence thresholds:  THRVAR = 1.00D-08  THRDEN = 1.00D-10

 CCSD(T)     terms to be evaluated (factor= 1.000)


 Number of core orbitals:           5 (   5 )
 Number of closed-shell orbitals:  15 (  15 )
 Number of active  orbitals:        1 (   1 )
 Number of external orbitals:      84 (  84 )

 Memory could be reduced to 24.91 Mwords without degradation in triples

 Number of N-1 electron functions:              31
 Number of N-2 electron functions:             465
 Number of singly external CSFs:              2635
 Number of doubly external CSFs:           2537250
 Total number of CSFs:                     2539885

 Molecular orbitals read from record     2100.2  Type=RHF/CANONICAL (state 1.1)

 Integral transformation finished. Total CPU:   1.60 sec, npass=  1  Memory used:  12.63 MW

 Starting RMP2 calculation

 ITER.      SQ.NORM     CORR.ENERGY   TOTAL ENERGY   ENERGY CHANGE        DEN1      VAR(S)    VAR(P)  DIIS     TIME
   1      1.24304401    -0.78639641  -268.05176383    -0.78639641    -0.00305014  0.20D-04  0.11D-02  1  1     2.07
   2      1.24568597    -0.78968579  -268.05505321    -0.00328938    -0.00000475  0.54D-06  0.19D-05  2  2     2.51
   3      1.24575158    -0.78972789  -268.05509530    -0.00004210    -0.00000003  0.16D-07  0.68D-08  3  3     3.00
   4      1.24575254    -0.78972789  -268.05509530    -0.00000000    -0.00000000  0.27D-09  0.38D-10  4  4     3.52
   5      1.24575262    -0.78972792  -268.05509534    -0.00000003    -0.00000000  0.25D-11  0.66D-12  5  5     4.08
   6      1.24575263    -0.78972793  -268.05509534    -0.00000001    -0.00000000  0.28D-13  0.87D-14  6  6     4.67
   7      1.24575263    -0.78972793  -268.05509534     0.00000000    -0.00000000  0.47D-15  0.12D-15  6  1     5.26
   8      1.24575263    -0.78972793  -268.05509534     0.00000000    -0.00000000  0.60D-17  0.13D-17  6  2     5.84

 Norm of t1 vector:      0.03894606      S-energy:    -0.00227261      T1 diagnostic:  0.00055074
 Norm of t2 vector:      0.49420222      P-energy:    -0.78745532
                                         Alpha-Beta:  -0.59343008
                                         Alpha-Alpha: -0.10094387
                                         Beta-Beta:   -0.09308137

 Spin contamination <S**2-Sz**2-Sz>     0.00104090
  Reference energy                   -267.265367413567
  RHF-RMP2 correlation energy          -0.789727930044
 !RHF-RMP2 energy                    -268.055095343611

 Starting UCCSD calculation

 ITER.      SQ.NORM     CORR.ENERGY   TOTAL ENERGY   ENERGY CHANGE        DEN1      VAR(S)    VAR(P)  DIIS     TIME
   1      1.26281869    -0.80906514  -268.07443255    -0.80906514    -0.02515845  0.38D-02  0.59D-02  1  1    15.74
   2      1.29159868    -0.83647683  -268.10184424    -0.02741169    -0.00201169  0.22D-03  0.66D-03  2  2    25.63
   3      1.30154341    -0.84097611  -268.10634352    -0.00449928    -0.00032470  0.19D-03  0.56D-04  3  3    35.50
   4      1.30645811    -0.84245375  -268.10782116    -0.00147764    -0.00007207  0.43D-04  0.14D-04  4  4    45.43
   5      1.30918748    -0.84284188  -268.10820929    -0.00038813    -0.00002365  0.19D-04  0.32D-05  5  5    55.39
   6      1.31112510    -0.84304624  -268.10841366    -0.00020437    -0.00000645  0.42D-05  0.12D-05  6  6    65.47
   7      1.31207318    -0.84310497  -268.10847238    -0.00005872    -0.00000208  0.14D-05  0.37D-06  6  2    75.44
   8      1.31251421    -0.84314761  -268.10851502    -0.00004264    -0.00000065  0.45D-06  0.11D-06  6  1    85.22
   9      1.31269929    -0.84315219  -268.10851960    -0.00000458    -0.00000022  0.15D-06  0.35D-07  6  4    95.24
  10      1.31276253    -0.84315512  -268.10852254    -0.00000294    -0.00000005  0.35D-07  0.95D-08  6  3   105.24
  11      1.31279201    -0.84315386  -268.10852128     0.00000126    -0.00000002  0.13D-07  0.28D-08  6  5   115.27
  12      1.31280237    -0.84315360  -268.10852101     0.00000026    -0.00000000  0.26D-08  0.95D-09  6  6   125.36
  13      1.31280122    -0.84315268  -268.10852010     0.00000092    -0.00000000  0.96D-09  0.28D-09  6  2   135.21
  14      1.31279602    -0.84315184  -268.10851925     0.00000084    -0.00000000  0.21D-09  0.67D-10  6  1   145.10
  15      1.31279195    -0.84315125  -268.10851866     0.00000059    -0.00000000  0.78D-10  0.19D-10  6  4   155.17
  16      1.31278877    -0.84315087  -268.10851828     0.00000038    -0.00000000  0.28D-10  0.63D-11  6  3   164.96
  17      1.31278657    -0.84315063  -268.10851804     0.00000024    -0.00000000  0.10D-10  0.24D-11  6  5   174.98
  18      1.31278566    -0.84315057  -268.10851798     0.00000006    -0.00000000  0.41D-11  0.87D-12  6  6   185.06
  19      1.31278505    -0.84315054  -268.10851795     0.00000003    -0.00000000  0.16D-11  0.37D-12  6  2   195.08
  20      1.31278474    -0.84315052  -268.10851794     0.00000001    -0.00000000  0.60D-12  0.13D-12  6  1   203.33
  21      1.31278457    -0.84315051  -268.10851793     0.00000001    -0.00000000  0.28D-12  0.58D-13  6  4   211.58
  22      1.31278445    -0.84315050  -268.10851792     0.00000001    -0.00000000  0.74D-13  0.21D-13  6  3   219.84
  23      1.31278439    -0.84315050  -268.10851792     0.00000000    -0.00000000  0.21D-13  0.63D-14  6  5   228.10
  24      1.31278439    -0.84315050  -268.10851792    -0.00000000    -0.00000000  0.67D-14  0.23D-14  6  6   236.36
  25      1.31278439    -0.84315050  -268.10851792    -0.00000000    -0.00000000  0.21D-14  0.52D-15  6  2   243.76
  26      1.31278440    -0.84315050  -268.10851792    -0.00000000    -0.00000000  0.77D-15  0.15D-15  6  1   252.01
  27      1.31278441    -0.84315051  -268.10851792    -0.00000000    -0.00000000  0.20D-15  0.62D-16  6  3   260.27
  28      1.31278441    -0.84315051  -268.10851792    -0.00000000    -0.00000000  0.30D-16  0.11D-16  6  4   268.53
  29      1.31278441    -0.84315051  -268.10851792    -0.00000000    -0.00000000  0.70D-17  0.29D-17  6  5   276.79
  30      1.31278442    -0.84315051  -268.10851792    -0.00000000    -0.00000000  0.15D-17  0.54D-18  6  6   285.05
  31      1.31278442    -0.84315051  -268.10851792    -0.00000000    -0.00000000  0.35D-18  0.10D-18  6  2   293.31

 Norm of t1 vector:      0.13871696      S-energy:    -0.00282241      T1 diagnostic:  0.01616852
                                                                       D1 diagnostic:  0.06280936
 Norm of t2 vector:      0.54179518      P-energy:    -0.84032810
                                         Alpha-Beta:  -0.66488131
                                         Alpha-Alpha: -0.09147517
                                         Beta-Beta:   -0.08397161

 Spin contamination <S**2-Sz**2-Sz>     0.00217062

 Memory could be reduced to 28.85 Mwords without degradation in triples
 

 RESULTS
 =======

  Reference energy                   -267.265367413567
  UCCSD singles energy                 -0.002822409474
  UCCSD pair energy                    -0.840328096654
  UCCSD correlation energy             -0.843150506128
  Triples (T) contribution             -0.024977553341
  Total correlation energy             -0.868128059470
 
  RHF-UCCSD energy                   -268.108517919695
  RHF-UCCSD[T] energy                -268.134831392483
  RHF-UCCSD-T energy                 -268.133073889134
 !RHF-UCCSD(T) energy                -268.133495473037

 Program statistics:

 Available memory in ccsd:               999997692
 Min. memory needed in ccsd:               7337057
 Max. memory used in ccsd:                10523002
 Max. memory used in cckext:              10867977 (31 integral passes)
 Max. memory used in cckint:              12633073 ( 1 integral passes)



 **********************************************************************************************************************************
 DATASETS  * FILE   NREC   LENGTH (MB)   RECORD NAMES
              1      18        3.17       500      610      700      900      950      970     1000      129      960     1100   
                                          VAR    BASINP    GEOM    SYMINP    ZMAT    AOBASIS   BASIS     P2S    ABASIS      S 
                                         1400     1410     1200     1210     1080     1600     1650     1700   
                                           T        V       H0       H01     AOSYM     SMH    MOLCAS    OPER   

              2       3        0.77       700     1000     2100   
                                         GEOM     BASIS     RHF  

 PROGRAMS   *        TOTAL  UCCSD(T)       RHF       INT
 CPU TIMES  *       363.29    359.68      1.98      1.56
 REAL TIME  *       377.25 SEC
 DISK USED  *         1.30 GB      
 SF USED    *       553.73 MB      
 GA USED    *         0.00 MB       (max)       0.00 MB       (current)
 **********************************************************************************************************************************

        UCCSD(T)        RHF-SCF 
   -268.13349547   -267.26536741
 **********************************************************************************************************************************
 Variable memory released
