
 Primary working directories    : /tmp/320938.639.gen4.q
 Secondary working directories  : /tmp/320938.639.gen4.q
 Wavefunction directory         : /home/vulcan/mel64643/wfu/
 Main file repository           : /tmp/320938.639.gen4.q/

 ARCHNAME  : Linux/x86_64
 FC        : /opt/intel/compilers_and_libraries_2016.1.150/linux/bin/intel64/ifort
 FCVERSION : 16.0.1
 BLASLIB   : -mkl
 id        : ccgc

 Nodes     nprocs
 n037         3
 Number of processes for MPI-2 version of Molpro:   nprocs(total)=    4   nprocs(compute)=    3   nprocs(helper)=    1
 ga_uses_ma=false, calling ma_init with nominal heap.
 GA-space will be limited to   8.0 MW (determined by -G option)

 Using customized tuning parameters: mindgm=10; mindgv=16; mindgc=4; mindgr=1; noblas=0; mincuda=1000; minvec=7
 default implementation of scratch files=sf  

 ***,Frequencies for min3
 memory,1000,m
 gthresh,energy=1.0d-10,orbital=1.0d-10,oneint=1.0d-16,twoint=1.0d-16,optgrad=1.0d-6,compress=1.0d-13
 geomtyp=xyz
 
  geometry = {
  12
  arbitrary comment
     C    1.776964391707    0.711398808326   -0.047331391796
     C    0.491811976407   -0.059992870174   -0.196493901896
     C    0.450332819107   -1.536294019674    0.101417522804
     O   -0.560767745493    0.726744417969    0.254406953019
     O   -1.837847230631    0.092566082076   -0.120516324204
     H    2.585361774863    0.211937137012   -0.611422704874
     H    1.660336258176    1.743331452254   -0.426678706839
     H    2.095077844459    0.774665896901    1.017607627571
     H   -0.504771963009   -1.984685407625   -0.219841612953
     H    1.281884849793   -2.046166017448   -0.416941475051
     H    0.561822826746   -1.717928568930    1.194940888119
     H   -1.987918553330    0.552004104457   -0.966980526064
  }
 
 basis=cc-pvdz
 {rhf;maxit,200}
 {uccsd(t);maxit,200}

 Variables initialized (661), CPU time= 0.01 sec
 Commands  initialized (458), CPU time= 0.01 sec, 486 directives.
 Default parameters read. Elapsed time= 0.07 sec

 Checking input...
 Passed
1


                                         ***  PROGRAM SYSTEM MOLPRO  ***
                         Copyright, University College Cardiff Consultants Limited, 2008

                                    Version 2010.1 linked May 16 2016 07:17:05


 **********************************************************************************************************************************
 LABEL *   Frequencies for min3                                                          
 Linux-4.4.3/n037(x86_64) 64 bit mpp version                                             DATE: 07-Mar-20          TIME: 04:43:50  
 **********************************************************************************************************************************

 SHA1:             9e8077add272b0f3cad6f7df79ec5211205f459d
 **********************************************************************************************************************************

 THRESHOLDS:

 ZERO    =  1.00D-12  ONEINT  =  1.00D-16  TWOINT  =  1.00D-16  PREFAC  =  1.00D-14  LOCALI  =  1.00D-09  EORDER  =  1.00D-04
 ENERGY  =  1.00D-10  ETEST   =  0.00D+00  EDENS   =  0.00D+00  THRDEDEF=  1.00D-06  GRADIENT=  1.00D-02  STEP    =  1.00D-03
 ORBITAL =  1.00D-10  CIVEC   =  1.00D-05  COEFF   =  1.00D-04  PRINTCI =  5.00D-02  PUNCHCI =  9.90D+01  OPTGRAD =  1.00D-06
 OPTENERG=  1.00D-06  OPTSTEP =  3.00D-04  THRGRAD =  1.00D-10  COMPRESS=  1.00D-13  VARMIN  =  1.00D-07  VARMAX  =  1.00D-03
 THRDOUB =  0.00D+00  THRDIV  =  1.00D-05  THRRED  =  1.00D-07  THRPSP  =  1.00D+00  THRDC   =  1.00D-10  THRCS   =  1.00D-10
 THRNRM  =  1.00D-08  THREQ   =  0.00D+00  THRDE   =  1.00D+00  THRREF  =  1.00D-05  SPARFAC =  1.00D+00  THRDLP  =  1.00D-07
 THRDIA  =  1.00D-10  THRDLS  =  1.00D-07  THRGPS  =  0.00D+00  THRKEX  =  0.00D+00  THRDIS  =  2.00D-01  THRVAR  =  1.00D-10
 THRLOC  =  1.00D-06  THRGAP  =  1.00D-06  THRLOCT = -1.00D+00  THRGAPT = -1.00D+00  THRORB  =  1.00D-06  THRMLTP =  0.00D+00
 THRCPQCI=  1.00D-10  KEXTA   =  0.00D+00  THRCOARS=  0.00D+00  SYMTOL  =  1.00D-06  GRADTOL =  1.00D-06  THROVL  =  1.00D-08
 THRORTH =  1.00D-08  GRID    =  1.00D-06  GRIDMAX =  1.00D-03  DTMAX   =  0.00D+00

 SETTING GEOMTYP        =    XYZ

 Variable memory set to 1000000000 words,  buffer space   230000 words

 SETTING BASIS          =    CC-PVDZ


 Recomputing integrals since basis changed


 Using spherical harmonics

 Library entry C      S cc-pVDZ              selected for orbital group  1
 Library entry C      P cc-pVDZ              selected for orbital group  1
 Library entry C      D cc-pVDZ              selected for orbital group  1
 Library entry O      S cc-pVDZ              selected for orbital group  2
 Library entry O      P cc-pVDZ              selected for orbital group  2
 Library entry O      D cc-pVDZ              selected for orbital group  2
 Library entry H      S cc-pVDZ              selected for orbital group  3
 Library entry H      P cc-pVDZ              selected for orbital group  3

1PROGRAM * SEWARD (Integral evaluation for generally contracted gaussian basis sets)     Author: Roland Lindh, 1990

 Geometry written to block  1 of record 700


 Point group  C1  



 ATOMIC COORDINATES

 NR  ATOM    CHARGE       X              Y              Z

   1  C       6.00    3.357976046    1.344348918   -0.089443368
   2  C       6.00    0.929389944   -0.113370094   -0.371319661
   3  C       6.00    0.851005696   -2.903174955    0.191651343
   4  O       8.00   -1.059697462    1.373347918    0.480759467
   5  O       8.00   -3.473027937    0.174924544   -0.227742847
   6  H       1.00    4.885625705    0.400503146   -1.155421463
   7  H       1.00    3.137580814    3.294419001   -0.806305902
   8  H       1.00    3.959123350    1.463906388    1.922999725
   9  H       1.00   -0.953880769   -3.750511877   -0.415440441
  10  H       1.00    2.422411298   -3.866693392   -0.787905201
  11  H       1.00    1.061691277   -3.246414509    2.258111022
  12  H       1.00   -3.756621637    1.043136581   -1.827328369

 Bond lengths in Bohr (Angstrom)

 1-2  2.846476668  1-6  2.088269049  1-7  2.089315505  1-8  2.103710834  2-3  2.847119878
     ( 1.506290578)     ( 1.105064387)     ( 1.105618148)     ( 1.113235828)     ( 1.506630951)

  2- 4  2.625421489   3- 9  2.084263766   3-10  2.087394157   3-11  2.105340212   4- 5  2.786100876
       ( 1.389313216)       ( 1.102944883)       ( 1.104601414)       ( 1.114098058)       ( 1.474341086)

  5-12  1.841980284
       ( 0.974733986)

 Bond angles

  1-2-3  120.37866573   1-2-4  108.92084440   2-1-6  110.00670441   2-1-7  110.73252341

  2- 1- 8  111.57004715   2- 3- 9  111.38310922   2- 3-10  109.80259021   2- 3-11  110.55323944

  2- 4- 5  109.27757305   3- 2- 4  118.02427572   4- 5-12   98.71093182   6- 1- 7  108.89755031

  6- 1- 8  107.75572290   7- 1- 8  107.77757885   9- 3-10  109.12066724   9- 3-11  107.83480749

 10- 3-11  108.06025560

 NUCLEAR CHARGE:                   41
 NUMBER OF PRIMITIVE AOS:         184
 NUMBER OF SYMMETRY AOS:          179
 NUMBER OF CONTRACTIONS:          105   ( 105A   )
 NUMBER OF CORE ORBITALS:           5   (   5A   )
 NUMBER OF VALENCE ORBITALS:       27   (  27A   )


 NUCLEAR REPULSION ENERGY  183.23051444


 Eigenvalues of metric

         1 0.345E-02 0.435E-02 0.105E-01 0.141E-01 0.182E-01 0.214E-01 0.331E-01 0.345E-01


 Contracted 2-electron integrals neglected if value below      1.0D-16
 AO integral compression algorithm  1   Integral accuracy      1.0D-16

     127.664 MB (compressed) written to integral file ( 93.2%)

     Node minimum: 34.603 MB, node maximum: 55.837 MB


 NUMBER OF SORTED TWO-ELECTRON INTEGRALS:    5164320.     BUFFER LENGTH:  32768
 NUMBER OF SEGMENTS:   1  SEGMENT LENGTH:    5164320      RECORD LENGTH: 524288

 Memory used in sort:       5.72 MW

 SORT1 READ    17075332. AND WROTE     5135905. INTEGRALS IN     15 RECORDS. CPU TIME:     0.34 SEC, REAL TIME:     0.39 SEC
 SORT2 READ    15396651. AND WROTE    15487395. INTEGRALS IN    639 RECORDS. CPU TIME:     0.10 SEC, REAL TIME:     0.16 SEC

 Node minimum:     5160610.  Node maximum:     5164320. integrals

 OPERATOR DM      FOR CENTER  0  COORDINATES:    0.000000    0.000000    0.000000


 **********************************************************************************************************************************
 DATASETS  * FILE   NREC   LENGTH (MB)   RECORD NAMES
              1      18        3.17       500      610      700      900      950      970     1000      129      960     1100   
                                          VAR    BASINP    GEOM    SYMINP    ZMAT    AOBASIS   BASIS     P2S    ABASIS      S 
                                         1400     1410     1200     1210     1080     1600     1650     1700   
                                           T        V       H0       H01     AOSYM     SMH    MOLCAS    OPER   

 PROGRAMS   *        TOTAL       INT
 CPU TIMES  *         1.76      1.66
 REAL TIME  *         2.11 SEC
 DISK USED  *       317.46 MB      
 GA USED    *         0.00 MB       (max)       0.00 MB       (current)
 **********************************************************************************************************************************

1PROGRAM * RHF-SCF (OPEN SHELL)       Authors: W. Meyer, H.-J. Werner


 NUMBER OF ELECTRONS:      21+   20-    SPACE SYMMETRY=1    SPIN SYMMETRY: Doublet 
 CONVERGENCE THRESHOLDS:    1.00E-10 (Density)    1.00E-11 (Energy)
 MAX. NUMBER OF ITERATIONS:      200
 INTERPOLATION TYPE:            DIIS
 INTERPOLATION STEPS:              2 (START)      1 (STEP)
 LEVEL SHIFTS:                 -0.30 (CLOSED)  0.00 (OPEN) 



 Orbital guess generated from atomic densities. Full valence occupancy:   32

 Molecular orbital dump at record        2100.2

 ITERATION    DDIFF          GRAD             ENERGY        2-EL.EN.            DIPOLE MOMENTS         DIIS
    1      0.000D+00      0.000D+00      -267.17830527    555.835358    0.56909    0.05112   -0.74924    0
    2      0.000D+00      0.617D-02      -267.24895941    555.756451    0.41377   -0.12999   -0.59881    1
    3      0.927D-02      0.214D-02      -267.26112611    555.674411    0.39356   -0.05830   -0.62608    2
    4      0.336D-02      0.912D-03      -267.26472929    555.826631    0.37909   -0.09851   -0.64244    3
    5      0.186D-02      0.363D-03      -267.26529747    555.797939    0.38166   -0.09208   -0.63541    4
    6      0.792D-03      0.110D-03      -267.26537375    555.784183    0.37993   -0.09189   -0.63815    5
    7      0.277D-03      0.510D-04      -267.26539382    555.781179    0.37923   -0.09163   -0.63764    6
    8      0.143D-03      0.272D-04      -267.26539985    555.779226    0.37950   -0.09175   -0.63785    7
    9      0.922D-04      0.115D-04      -267.26540077    555.779543    0.37969   -0.09171   -0.63760    8
   10      0.365D-04      0.500D-05      -267.26540092    555.780152    0.37994   -0.09172   -0.63767    9
   11      0.146D-04      0.196D-05      -267.26540095    555.779995    0.38000   -0.09171   -0.63767    9
   12      0.649D-05      0.669D-06      -267.26540095    555.780129    0.38001   -0.09171   -0.63767    9
   13      0.227D-05      0.226D-06      -267.26540095    555.780045    0.38002   -0.09171   -0.63767    9
   14      0.630D-06      0.756D-07      -267.26540095    555.780054    0.38002   -0.09172   -0.63767    9
   15      0.192D-06      0.300D-07      -267.26540095    555.780050    0.38002   -0.09172   -0.63767    9
   16      0.824D-07      0.145D-07      -267.26540095    555.780051    0.38002   -0.09172   -0.63767    9
   17      0.374D-07      0.749D-08      -267.26540095    555.780051    0.38002   -0.09172   -0.63767    9
   18      0.222D-07      0.341D-08      -267.26540095    555.780051    0.38002   -0.09172   -0.63767    9
   19      0.114D-07      0.133D-08      -267.26540095    555.780051    0.38002   -0.09172   -0.63767    9
   20      0.442D-08      0.565D-09      -267.26540095    555.780051    0.38002   -0.09172   -0.63767    9
   21      0.165D-08      0.285D-09      -267.26540095    555.780051    0.38002   -0.09172   -0.63767    9
   22      0.751D-09      0.161D-09      -267.26540095    555.780051    0.38002   -0.09172   -0.63767    9
   23      0.444D-09      0.792D-10      -267.26540095    555.780051    0.38002   -0.09172   -0.63767    9
   24      0.262D-09      0.315D-10      -267.26540095    555.780051    0.38002   -0.09172   -0.63767    9
   25      0.927D-10      0.128D-10      -267.26540095    555.780051    0.38002   -0.09172   -0.63767    0

 Final alpha occupancy:  21
 Final beta  occupancy:  20

 !RHF STATE 1.1 Energy               -267.265400952655
 Nuclear energy                       183.23051444
 One-electron energy                 -728.38594113
 Two-electron energy                  277.89002574
 Virial quotient                       -1.00155497
 !RHF STATE 1.1 Dipole moment           0.38001967    -0.09171578    -0.63766805
 Dipole moment /Debye                   0.96585040    -0.23310300    -1.62068437

 Orbital energies:

         1.1          2.1          3.1          4.1          5.1          6.1          7.1          8.1          9.1         10.1
    -20.630385   -20.628839   -11.279219   -11.237918   -11.232182    -1.470291    -1.240676    -1.023193    -0.945313    -0.768507

        11.1         12.1         13.1         14.1         15.1         16.1         17.1         18.1         19.1         20.1
     -0.704591    -0.643005    -0.626823    -0.588809    -0.545041    -0.543327    -0.539100    -0.516884    -0.492978    -0.469772

        21.1         22.1         23.1
     -0.352183     0.181256     0.183590


 **********************************************************************************************************************************
 DATASETS  * FILE   NREC   LENGTH (MB)   RECORD NAMES
              1      18        3.17       500      610      700      900      950      970     1000      129      960     1100   
                                          VAR    BASINP    GEOM    SYMINP    ZMAT    AOBASIS   BASIS     P2S    ABASIS      S 
                                         1400     1410     1200     1210     1080     1600     1650     1700   
                                           T        V       H0       H01     AOSYM     SMH    MOLCAS    OPER   

              2       3        0.77       700     1000     2100   
                                         GEOM     BASIS     RHF  

 PROGRAMS   *        TOTAL       RHF       INT
 CPU TIMES  *         3.73      1.97      1.66
 REAL TIME  *         4.28 SEC
 DISK USED  *       334.02 MB      
 SF USED    *         0.04 MB      
 GA USED    *         0.00 MB       (max)       0.00 MB       (current)
 **********************************************************************************************************************************


1PROGRAM * CCSD (Unrestricted open-shell coupled cluster)     Authors: C. Hampel, H.-J. Werner, 1991, M. Deegan, P.J. Knowles, 1992


 Convergence thresholds:  THRVAR = 1.00D-08  THRDEN = 1.00D-10

 CCSD(T)     terms to be evaluated (factor= 1.000)


 Number of core orbitals:           5 (   5 )
 Number of closed-shell orbitals:  15 (  15 )
 Number of active  orbitals:        1 (   1 )
 Number of external orbitals:      84 (  84 )

 Memory could be reduced to 24.91 Mwords without degradation in triples

 Number of N-1 electron functions:              31
 Number of N-2 electron functions:             465
 Number of singly external CSFs:              2635
 Number of doubly external CSFs:           2537250
 Total number of CSFs:                     2539885

 Molecular orbitals read from record     2100.2  Type=RHF/CANONICAL (state 1.1)

 Integral transformation finished. Total CPU:   1.62 sec, npass=  1  Memory used:  12.63 MW

 Starting RMP2 calculation

 ITER.      SQ.NORM     CORR.ENERGY   TOTAL ENERGY   ENERGY CHANGE        DEN1      VAR(S)    VAR(P)  DIIS     TIME
   1      1.24301623    -0.78636979  -268.05177074    -0.78636979    -0.00304938  0.20D-04  0.11D-02  1  1     2.11
   2      1.24565702    -0.78965832  -268.05505927    -0.00328853    -0.00000474  0.54D-06  0.19D-05  2  2     2.53
   3      1.24572255    -0.78970037  -268.05510132    -0.00004205    -0.00000003  0.16D-07  0.68D-08  3  3     2.98
   4      1.24572350    -0.78970037  -268.05510132    -0.00000000    -0.00000000  0.27D-09  0.38D-10  4  4     3.46
   5      1.24572358    -0.78970040  -268.05510136    -0.00000003    -0.00000000  0.25D-11  0.65D-12  5  5     3.97
   6      1.24572360    -0.78970041  -268.05510136    -0.00000001    -0.00000000  0.28D-13  0.87D-14  6  6     4.51
   7      1.24572360    -0.78970041  -268.05510136     0.00000000    -0.00000000  0.47D-15  0.12D-15  6  1     5.06
   8      1.24572360    -0.78970041  -268.05510136     0.00000000    -0.00000000  0.60D-17  0.13D-17  6  2     5.60

 Norm of t1 vector:      0.03893781      S-energy:    -0.00227219      T1 diagnostic:  0.00055033
 Norm of t2 vector:      0.49417350      P-energy:    -0.78742822
                                         Alpha-Beta:  -0.59340794
                                         Alpha-Alpha: -0.10094116
                                         Beta-Beta:   -0.09307911

 Spin contamination <S**2-Sz**2-Sz>     0.00104061
  Reference energy                   -267.265400952656
  RHF-RMP2 correlation energy          -0.789700409770
 !RHF-RMP2 energy                    -268.055101362425

 Starting UCCSD calculation

 ITER.      SQ.NORM     CORR.ENERGY   TOTAL ENERGY   ENERGY CHANGE        DEN1      VAR(S)    VAR(P)  DIIS     TIME
   1      1.26279434    -0.80904637  -268.07444733    -0.80904637    -0.02515306  0.38D-02  0.59D-02  1  1    15.30
   2      1.29156500    -0.83645356  -268.10185451    -0.02740719    -0.00201045  0.22D-03  0.66D-03  2  2    25.01
   3      1.30150371    -0.84095087  -268.10635183    -0.00449731    -0.00032454  0.19D-03  0.56D-04  3  3    34.70
   4      1.30641500    -0.84242751  -268.10782846    -0.00147664    -0.00007208  0.43D-04  0.14D-04  4  4    42.17
   5      1.30914468    -0.84281560  -268.10821655    -0.00038809    -0.00002367  0.19D-04  0.32D-05  5  5    49.00
   6      1.31108375    -0.84302005  -268.10842101    -0.00020445    -0.00000645  0.42D-05  0.12D-05  6  6    55.80
   7      1.31203272    -0.84307884  -268.10847979    -0.00005879    -0.00000208  0.14D-05  0.37D-06  6  2    62.66
   8      1.31247357    -0.84312146  -268.10852241    -0.00004262    -0.00000065  0.45D-06  0.11D-06  6  1    69.46
   9      1.31265839    -0.84312603  -268.10852699    -0.00000457    -0.00000022  0.15D-06  0.35D-07  6  4    76.31
  10      1.31272134    -0.84312895  -268.10852991    -0.00000292    -0.00000005  0.35D-07  0.95D-08  6  3    83.14
  11      1.31275073    -0.84312769  -268.10852865     0.00000126    -0.00000002  0.13D-07  0.28D-08  6  5    89.98
  12      1.31276106    -0.84312743  -268.10852838     0.00000027    -0.00000000  0.26D-08  0.95D-09  6  6    96.85
  13      1.31275990    -0.84312651  -268.10852747     0.00000092    -0.00000000  0.96D-09  0.28D-09  6  2   103.68
  14      1.31275469    -0.84312567  -268.10852662     0.00000084    -0.00000000  0.21D-09  0.67D-10  6  1   110.48
  15      1.31275062    -0.84312508  -268.10852603     0.00000059    -0.00000000  0.78D-10  0.19D-10  6  4   117.30
  16      1.31274744    -0.84312470  -268.10852565     0.00000038    -0.00000000  0.28D-10  0.62D-11  6  3   124.15
  17      1.31274524    -0.84312446  -268.10852541     0.00000024    -0.00000000  0.10D-10  0.24D-11  6  5   130.98
  18      1.31274434    -0.84312440  -268.10852535     0.00000006    -0.00000000  0.40D-11  0.86D-12  6  6   137.80
  19      1.31274374    -0.84312437  -268.10852532     0.00000003    -0.00000000  0.16D-11  0.37D-12  6  2   144.65
  20      1.31274342    -0.84312436  -268.10852531     0.00000001    -0.00000000  0.59D-12  0.13D-12  6  1   151.45
  21      1.31274325    -0.84312435  -268.10852530     0.00000001    -0.00000000  0.28D-12  0.57D-13  6  4   158.27
  22      1.31274313    -0.84312434  -268.10852529     0.00000001    -0.00000000  0.73D-13  0.21D-13  6  3   165.11
  23      1.31274308    -0.84312433  -268.10852529     0.00000000    -0.00000000  0.21D-13  0.62D-14  6  5   171.92
  24      1.31274307    -0.84312433  -268.10852529    -0.00000000    -0.00000000  0.67D-14  0.22D-14  6  6   178.75
  25      1.31274307    -0.84312434  -268.10852529    -0.00000000    -0.00000000  0.21D-14  0.52D-15  6  2   185.56
  26      1.31274308    -0.84312434  -268.10852529    -0.00000000    -0.00000000  0.76D-15  0.15D-15  6  1   192.39
  27      1.31274309    -0.84312434  -268.10852529    -0.00000000    -0.00000000  0.20D-15  0.62D-16  6  3   199.25
  28      1.31274310    -0.84312434  -268.10852529    -0.00000000    -0.00000000  0.29D-16  0.11D-16  6  4   206.07
  29      1.31274310    -0.84312434  -268.10852529    -0.00000000    -0.00000000  0.70D-17  0.29D-17  6  5   212.89
  30      1.31274310    -0.84312434  -268.10852529    -0.00000000    -0.00000000  0.15D-17  0.53D-18  6  6   219.70
  31      1.31274310    -0.84312434  -268.10852529    -0.00000000    -0.00000000  0.35D-18  0.10D-18  6  2   226.57

 Norm of t1 vector:      0.13870044      S-energy:    -0.00282179      T1 diagnostic:  0.01616684
                                                                       D1 diagnostic:  0.06281473
 Norm of t2 vector:      0.54176128      P-energy:    -0.84030254
                                         Alpha-Beta:  -0.66485649
                                         Alpha-Alpha: -0.09147490
                                         Beta-Beta:   -0.08397116

 Spin contamination <S**2-Sz**2-Sz>     0.00217103

 Memory could be reduced to 28.85 Mwords without degradation in triples
 

 RESULTS
 =======

  Reference energy                   -267.265400952656
  UCCSD singles energy                 -0.002821794586
  UCCSD pair energy                    -0.840302543618
  UCCSD correlation energy             -0.843124338204
  Triples (T) contribution             -0.024971242802
  Total correlation energy             -0.868095581006
 
  RHF-UCCSD energy                   -268.108525290860
  RHF-UCCSD[T] energy                -268.134831917988
  RHF-UCCSD-T energy                 -268.133075113682
 !RHF-UCCSD(T) energy                -268.133496533662

 Program statistics:

 Available memory in ccsd:               999997692
 Min. memory needed in ccsd:               7337057
 Max. memory used in ccsd:                10523002
 Max. memory used in cckext:              10867977 (31 integral passes)
 Max. memory used in cckint:              12633073 ( 1 integral passes)



 **********************************************************************************************************************************
 DATASETS  * FILE   NREC   LENGTH (MB)   RECORD NAMES
              1      18        3.17       500      610      700      900      950      970     1000      129      960     1100   
                                          VAR    BASINP    GEOM    SYMINP    ZMAT    AOBASIS   BASIS     P2S    ABASIS      S 
                                         1400     1410     1200     1210     1080     1600     1650     1700   
                                           T        V       H0       H01     AOSYM     SMH    MOLCAS    OPER   

              2       3        0.77       700     1000     2100   
                                         GEOM     BASIS     RHF  

 PROGRAMS   *        TOTAL  UCCSD(T)       RHF       INT
 CPU TIMES  *       291.37    287.64      1.97      1.66
 REAL TIME  *       304.56 SEC
 DISK USED  *         1.30 GB      
 SF USED    *       553.73 MB      
 GA USED    *         0.00 MB       (max)       0.00 MB       (current)
 **********************************************************************************************************************************

        UCCSD(T)        RHF-SCF 
   -268.13349653   -267.26540095
 **********************************************************************************************************************************
 Variable memory released
