    -----------------------------------------------------------------------
          Psi4: An Open-Source Ab Initio Electronic Structure Package
                              Psi4 1.0.54 Driver

                          Git: Rev {master} 8d4cec3 dirty

    J. M. Turney, A. C. Simmonett, R. M. Parrish, E. G. Hohenstein,
    F. A. Evangelista, J. T. Fermann, B. J. Mintz, L. A. Burns, J. J. Wilke,
    M. L. Abrams, N. J. Russ, M. L. Leininger, C. L. Janssen, E. T. Seidl,
    W. D. Allen, H. F. Schaefer, R. A. King, E. F. Valeev, C. D. Sherrill,
    and T. D. Crawford, WIREs Comput. Mol. Sci. 2, 556-565 (2012)
    (doi: 10.1002/wcms.93)

                         Additional Contributions by
    A. E. DePrince, U. Bozkaya, A. Yu. Sokolov, D. G. A. Smith, R. Di Remigio,
    R. M. Richard, J. F. Gonthier, H. R. McAlexander, M. Saitow, and
    B. P. Pritchard
    -----------------------------------------------------------------------


    Psi4 started on: Wed Sep  7 16:16:00 2016

    Process ID:   2566
    PSI4DATADIR: /home/avcopan/Documents/code/github/psi4/share
    Memory level set to 256.000 MB

  ==> Input File <==

--------------------------------------------------------------------------
memory 250 mb

molecule {
  O    0.000000000000   -0.000178969871   -0.064716289574
  H    0.000000000000   -0.747625808777    0.512450852116
  H   -0.000000000000    0.750466190511    0.514643626881
}

set basis sto-3g
energy('scf')
--------------------------------------------------------------------------

  Memory set to 250.000 MiB by Python script.
    There are an even number of electrons - assuming singlet.
    Specify the multiplicity in the molecule input block.


*** tstart() called on knut
*** at Wed Sep  7 16:16:00 2016


         ---------------------------------------------------------
                                   SCF
            by Justin Turney, Rob Parrish, and Andy Simmonett
                              RHF Reference
                        1 Threads,    250 MiB Core
         ---------------------------------------------------------

  ==> Geometry <==

    Molecular point group: cs
    Full point group: Cs

    Geometry (in Angstrom), charge = 0, multiplicity = 1:

       Center              X                  Y                   Z               Mass       
    ------------   -----------------  -----------------  -----------------  -----------------
           O          0.000178969871     0.064716289574     0.000000000000    15.994914619560
           H          0.747625808777    -0.512450852116     0.000000000000     1.007825032070
           H         -0.750466190511    -0.514643626881     0.000000000000     1.007825032070

  Running in cs symmetry.

  Rotational constants: A =     28.16361  B =     14.90578  C =      9.74708 [cm^-1]
  Rotational constants: A = 844323.81287  B = 446864.04988  C = 292209.96364 [MHz]
  Nuclear repulsion =    9.300702030854044

  Charge       = 0
  Multiplicity = 1
  Electrons    = 10
  Nalpha       = 5
  Nbeta        = 5

  ==> Algorithm <==

  SCF Algorithm Type is DF.
  DIIS enabled.
  MOM disabled.
  Fractional occupation disabled.
  Guess Type is SAD.
  Energy threshold   = 1.00e-06
  Density threshold  = 1.00e-06
  Integral threshold = 0.00e+00

  ==> Primary Basis <==

  Basis Set: STO-3G
    Number of shells: 5
    Number of basis function: 7
    Number of Cartesian functions: 7
    Spherical Harmonics?: true
    Max angular momentum: 1

  ==> Pre-Iterations <==

   -------------------------------------------------------
    Irrep   Nso     Nmo     Nalpha   Nbeta   Ndocc  Nsocc
   -------------------------------------------------------
     A'         6       6       0       0       0       0
     A"         1       1       0       0       0       0
   -------------------------------------------------------
    Total       7       7       5       5       5       0
   -------------------------------------------------------

  ==> Integral Setup <==

  ==> DFJK: Density-Fitted J/K Matrices <==

    J tasked:                  Yes
    K tasked:                  Yes
    wK tasked:                  No
    OpenMP threads:              1
    Integrals threads:           1
    Memory (MB):               178
    Algorithm:                Core
    Integral Cache:           NONE
    Schwarz Cutoff:          1E-12
    Fitting Condition:       1E-12

   => Auxiliary Basis Set <=

  Basis Set: 
    Number of shells: 30
    Number of basis function: 84
    Number of Cartesian functions: 96
    Spherical Harmonics?: true
    Max angular momentum: 3

  Minimum eigenvalue in the overlap matrix is 3.3501202161E-01.
  Using Symmetric Orthogonalization.
  SCF Guess: Superposition of Atomic Densities via on-the-fly atomic UHF.

  ==> Iterations <==

                           Total Energy        Delta E     RMS |[F,P]|

   @DF-RHF iter   0:   -74.72926939785366   -7.47293e+01   2.52793e-01 
   @DF-RHF iter   1:   -74.95219769396955   -2.22928e-01   1.93507e-02 
   @DF-RHF iter   2:   -74.96128134804424   -9.08365e-03   2.38611e-03 DIIS
   @DF-RHF iter   3:   -74.96143899466038   -1.57647e-04   6.72659e-04 DIIS
   @DF-RHF iter   4:   -74.96145841308443   -1.94184e-05   1.10702e-04 DIIS
   @DF-RHF iter   5:   -74.96145908268174   -6.69597e-07   8.71713e-06 DIIS
   @DF-RHF iter   6:   -74.96145908627778   -3.59604e-09   2.01722e-08 DIIS

  ==> Post-Iterations <==

    Orbital Energies (a.u.)
    -----------------------

    Doubly Occupied:                                                      

       1Ap   -20.240836     2Ap    -1.273960     3Ap    -0.623980  
       4Ap    -0.453968     1App   -0.391894  

    Virtual:                                                              

       5Ap     0.616488     6Ap     0.756065  

    Final Occupation by Irrep:
             Ap   App 
    DOCC [     4,    1 ]

  Energy converged.

  @DF-RHF Final Energy:   -74.96145908627778

   => Energetics <=

    Nuclear Repulsion Energy =              9.3007020308540440
    One-Electron Energy =                -122.5550464541175018
    Two-Electron Energy =                  38.2928853369856910
    DFT Exchange-Correlation Energy =       0.0000000000000000
    Empirical Dispersion Energy =           0.0000000000000000
    PCM Polarization Energy =               0.0000000000000000
    EFP Energy =                            0.0000000000000000
    Total Energy =                        -74.9614590862777703

    Alert: EFP and PCM quantities not currently incorporated into SCF psivars.
  Saving occupied orbitals to File 180.

*** tstop() called on knut at Wed Sep  7 16:16:00 2016
Module time:
	user time   =       0.18 seconds =       0.00 minutes
	system time =       0.31 seconds =       0.01 minutes
	total time  =          0 seconds =       0.00 minutes
Total time:
	user time   =       0.18 seconds =       0.00 minutes
	system time =       0.31 seconds =       0.01 minutes
	total time  =          0 seconds =       0.00 minutes


Properties will be evaluated at   0.000000,   0.000000,   0.000000 Bohr

Properties computed using the SCF density matrix

  Nuclear Dipole Moment: (a.u.)
     X:    -0.0027      Y:    -0.9626      Z:     0.0000

  Electronic Dipole Moment: (a.u.)
     X:     0.0033      Y:     0.2784      Z:     0.0000

  Dipole Moment: (a.u.)
     X:     0.0007      Y:    -0.6842      Z:     0.0000     Total:     0.6842

  Dipole Moment: (Debye)
     X:     0.0017      Y:    -1.7390      Z:     0.0000     Total:     1.7390


*** Psi4 exiting successfully. Buy a developer a beer!
