
 Primary working directories    : /tmp/320938.444.gen4.q
 Secondary working directories  : /tmp/320938.444.gen4.q
 Wavefunction directory         : /home/vulcan/mel64643/wfu/
 Main file repository           : /tmp/320938.444.gen4.q/

 ARCHNAME  : Linux/x86_64
 FC        : /opt/intel/compilers_and_libraries_2016.1.150/linux/bin/intel64/ifort
 FCVERSION : 16.0.1
 BLASLIB   : -mkl
 id        : ccgc

 Nodes     nprocs
 n031         3
 Number of processes for MPI-2 version of Molpro:   nprocs(total)=    4   nprocs(compute)=    3   nprocs(helper)=    1
 ga_uses_ma=false, calling ma_init with nominal heap.
 GA-space will be limited to   8.0 MW (determined by -G option)

 Using customized tuning parameters: mindgm=10; mindgv=16; mindgc=4; mindgr=1; noblas=0; mincuda=1000; minvec=7
 default implementation of scratch files=sf  

 ***,Frequencies for min3
 memory,1000,m
 gthresh,energy=1.0d-10,orbital=1.0d-10,oneint=1.0d-16,twoint=1.0d-16,optgrad=1.0d-6,compress=1.0d-13
 geomtyp=xyz
 
  geometry = {
  12
  arbitrary comment
     C    1.776964391707    0.711398808326   -0.047331391796
     C    0.491811976407   -0.059992870174   -0.195858138425
     C    0.450334595838   -1.536294104051    0.101225781021
     O   -0.560740969492    0.727246358156    0.254257222591
     O   -1.837861720730    0.092262278029   -0.120533731557
     H    2.585291162371    0.211419103145   -0.611997805799
     H    1.660371490085    1.742854286297   -0.427062824643
     H    2.095244961742    0.774096368602    1.018317741193
     H   -0.505273767298   -1.982789679875   -0.219388646006
     H    1.281256814000   -2.048100174187   -0.418301879719
     H    0.562992634556   -1.718010012439    1.194006618622
     H   -1.988306399161    0.550545145408   -0.967524006017
  }
 
 basis=cc-pvdz
 {rhf;maxit,200}
 {uccsd(t);maxit,200}

 Variables initialized (661), CPU time= 0.01 sec
 Commands  initialized (458), CPU time= 0.01 sec, 486 directives.
 Default parameters read. Elapsed time= 0.08 sec

 Checking input...
 Passed
1


                                         ***  PROGRAM SYSTEM MOLPRO  ***
                         Copyright, University College Cardiff Consultants Limited, 2008

                                    Version 2010.1 linked May 16 2016 07:17:05


 **********************************************************************************************************************************
 LABEL *   Frequencies for min3                                                          
 Linux-4.4.3/n031(x86_64) 64 bit mpp version                                             DATE: 07-Mar-20          TIME: 03:34:50  
 **********************************************************************************************************************************

 SHA1:             9e8077add272b0f3cad6f7df79ec5211205f459d
 **********************************************************************************************************************************

 THRESHOLDS:

 ZERO    =  1.00D-12  ONEINT  =  1.00D-16  TWOINT  =  1.00D-16  PREFAC  =  1.00D-14  LOCALI  =  1.00D-09  EORDER  =  1.00D-04
 ENERGY  =  1.00D-10  ETEST   =  0.00D+00  EDENS   =  0.00D+00  THRDEDEF=  1.00D-06  GRADIENT=  1.00D-02  STEP    =  1.00D-03
 ORBITAL =  1.00D-10  CIVEC   =  1.00D-05  COEFF   =  1.00D-04  PRINTCI =  5.00D-02  PUNCHCI =  9.90D+01  OPTGRAD =  1.00D-06
 OPTENERG=  1.00D-06  OPTSTEP =  3.00D-04  THRGRAD =  1.00D-10  COMPRESS=  1.00D-13  VARMIN  =  1.00D-07  VARMAX  =  1.00D-03
 THRDOUB =  0.00D+00  THRDIV  =  1.00D-05  THRRED  =  1.00D-07  THRPSP  =  1.00D+00  THRDC   =  1.00D-10  THRCS   =  1.00D-10
 THRNRM  =  1.00D-08  THREQ   =  0.00D+00  THRDE   =  1.00D+00  THRREF  =  1.00D-05  SPARFAC =  1.00D+00  THRDLP  =  1.00D-07
 THRDIA  =  1.00D-10  THRDLS  =  1.00D-07  THRGPS  =  0.00D+00  THRKEX  =  0.00D+00  THRDIS  =  2.00D-01  THRVAR  =  1.00D-10
 THRLOC  =  1.00D-06  THRGAP  =  1.00D-06  THRLOCT = -1.00D+00  THRGAPT = -1.00D+00  THRORB  =  1.00D-06  THRMLTP =  0.00D+00
 THRCPQCI=  1.00D-10  KEXTA   =  0.00D+00  THRCOARS=  0.00D+00  SYMTOL  =  1.00D-06  GRADTOL =  1.00D-06  THROVL  =  1.00D-08
 THRORTH =  1.00D-08  GRID    =  1.00D-06  GRIDMAX =  1.00D-03  DTMAX   =  0.00D+00

 SETTING GEOMTYP        =    XYZ

 Variable memory set to 1000000000 words,  buffer space   230000 words

 SETTING BASIS          =    CC-PVDZ


 Recomputing integrals since basis changed


 Using spherical harmonics

 Library entry C      S cc-pVDZ              selected for orbital group  1
 Library entry C      P cc-pVDZ              selected for orbital group  1
 Library entry C      D cc-pVDZ              selected for orbital group  1
 Library entry O      S cc-pVDZ              selected for orbital group  2
 Library entry O      P cc-pVDZ              selected for orbital group  2
 Library entry O      D cc-pVDZ              selected for orbital group  2
 Library entry H      S cc-pVDZ              selected for orbital group  3
 Library entry H      P cc-pVDZ              selected for orbital group  3

1PROGRAM * SEWARD (Integral evaluation for generally contracted gaussian basis sets)     Author: Roland Lindh, 1990

 Geometry written to block  1 of record 700


 Point group  C1  



 ATOMIC COORDINATES

 NR  ATOM    CHARGE       X              Y              Z

   1  C       6.00    3.357976046    1.344348918   -0.089443368
   2  C       6.00    0.929389944   -0.113370094   -0.370118242
   3  C       6.00    0.851009054   -2.903175114    0.191289004
   4  O       8.00   -1.059646863    1.374296447    0.480476518
   5  O       8.00   -3.473055320    0.174350438   -0.227775742
   6  H       1.00    4.885492267    0.399524204   -1.156508246
   7  H       1.00    3.137647393    3.293517288   -0.807031779
   8  H       1.00    3.959439156    1.462830136    1.924341646
   9  H       1.00   -0.954829042   -3.746929471   -0.414584457
  10  H       1.00    2.421224482   -3.870348419   -0.790475993
  11  H       1.00    1.063901893   -3.246568415    2.256345508
  12  H       1.00   -3.757354560    1.040379548   -1.828355397

 Bond lengths in Bohr (Angstrom)

 1-2  2.846357946  1-6  2.089168974  1-7  2.088716156  1-8  2.105023932  2-3  2.846811147
     ( 1.506227754)     ( 1.105540607)     ( 1.105300986)     ( 1.113930689)     ( 1.506467577)

  2- 4  2.625439126   3- 9  2.083279936   3-10  2.089225503   3-11  2.104210229   4- 5  2.786760138
       ( 1.389322549)       ( 1.102424262)       ( 1.105570521)       ( 1.113500096)       ( 1.474689952)

  5-12  1.841925001
       ( 0.974704731)

 Bond angles

  1-2-3  120.39278627   1-2-4  108.92100283   2-1-6  109.99063743   2-1-7  110.73454822

  2- 1- 8  111.52763406   2- 3- 9  111.31011925   2- 3-10  109.89516742   2- 3-11  110.52867476

  2- 4- 5  109.25523944   3- 2- 4  118.06926981   4- 5-12   98.74668363   6- 1- 7  108.88601628

  6- 1- 8  107.76807725   7- 1- 8  107.83515231   9- 3-10  109.10663136   9- 3-11  107.87976580

 10- 3-11  108.03427109

 NUCLEAR CHARGE:                   41
 NUMBER OF PRIMITIVE AOS:         184
 NUMBER OF SYMMETRY AOS:          179
 NUMBER OF CONTRACTIONS:          105   ( 105A   )
 NUMBER OF CORE ORBITALS:           5   (   5A   )
 NUMBER OF VALENCE ORBITALS:       27   (  27A   )


 NUCLEAR REPULSION ENERGY  183.22415356


 Eigenvalues of metric

         1 0.345E-02 0.435E-02 0.105E-01 0.141E-01 0.182E-01 0.214E-01 0.331E-01 0.346E-01


 Contracted 2-electron integrals neglected if value below      1.0D-16
 AO integral compression algorithm  1   Integral accuracy      1.0D-16

     127.402 MB (compressed) written to integral file ( 93.4%)

     Node minimum: 41.419 MB, node maximum: 43.778 MB


 NUMBER OF SORTED TWO-ELECTRON INTEGRALS:    5164320.     BUFFER LENGTH:  32768
 NUMBER OF SEGMENTS:   1  SEGMENT LENGTH:    5164320      RECORD LENGTH: 524288

 Memory used in sort:       5.72 MW

 SORT1 READ    17075332. AND WROTE     5135885. INTEGRALS IN     15 RECORDS. CPU TIME:     0.23 SEC, REAL TIME:     0.27 SEC
 SORT2 READ    15396573. AND WROTE    15487395. INTEGRALS IN    474 RECORDS. CPU TIME:     0.08 SEC, REAL TIME:     0.12 SEC

 Node minimum:     5160610.  Node maximum:     5164320. integrals

 OPERATOR DM      FOR CENTER  0  COORDINATES:    0.000000    0.000000    0.000000


 **********************************************************************************************************************************
 DATASETS  * FILE   NREC   LENGTH (MB)   RECORD NAMES
              1      18        3.17       500      610      700      900      950      970     1000      129      960     1100   
                                          VAR    BASINP    GEOM    SYMINP    ZMAT    AOBASIS   BASIS     P2S    ABASIS      S 
                                         1400     1410     1200     1210     1080     1600     1650     1700   
                                           T        V       H0       H01     AOSYM     SMH    MOLCAS    OPER   

 PROGRAMS   *        TOTAL       INT
 CPU TIMES  *         1.32      1.22
 REAL TIME  *         1.61 SEC
 DISK USED  *       305.17 MB      
 GA USED    *         0.00 MB       (max)       0.00 MB       (current)
 **********************************************************************************************************************************

1PROGRAM * RHF-SCF (OPEN SHELL)       Authors: W. Meyer, H.-J. Werner


 NUMBER OF ELECTRONS:      21+   20-    SPACE SYMMETRY=1    SPIN SYMMETRY: Doublet 
 CONVERGENCE THRESHOLDS:    1.00E-10 (Density)    1.00E-11 (Energy)
 MAX. NUMBER OF ITERATIONS:      200
 INTERPOLATION TYPE:            DIIS
 INTERPOLATION STEPS:              2 (START)      1 (STEP)
 LEVEL SHIFTS:                 -0.30 (CLOSED)  0.00 (OPEN) 



 Orbital guess generated from atomic densities. Full valence occupancy:   32

 Molecular orbital dump at record        2100.2

 ITERATION    DDIFF          GRAD             ENERGY        2-EL.EN.            DIPOLE MOMENTS         DIIS
    1      0.000D+00      0.000D+00      -267.17822324    555.825367    0.57049    0.04884   -0.75009    0
    2      0.000D+00      0.617D-02      -267.24888141    555.743548    0.41349   -0.13142   -0.59936    1
    3      0.927D-02      0.214D-02      -267.26106265    555.662086    0.39307   -0.05950   -0.62655    2
    4      0.336D-02      0.912D-03      -267.26467556    555.814130    0.37836   -0.09964   -0.64287    3
    5      0.186D-02      0.364D-03      -267.26524675    555.785460    0.38086   -0.09316   -0.63584    4
    6      0.793D-03      0.110D-03      -267.26532372    555.771723    0.37911   -0.09297   -0.63858    5
    7      0.278D-03      0.513D-04      -267.26534402    555.768710    0.37839   -0.09271   -0.63807    6
    8      0.144D-03      0.273D-04      -267.26535013    555.766761    0.37866   -0.09282   -0.63829    7
    9      0.928D-04      0.115D-04      -267.26535105    555.767082    0.37885   -0.09278   -0.63805    8
   10      0.367D-04      0.502D-05      -267.26535121    555.767693    0.37911   -0.09279   -0.63811    9
   11      0.147D-04      0.197D-05      -267.26535123    555.767534    0.37916   -0.09279   -0.63812    9
   12      0.652D-05      0.672D-06      -267.26535124    555.767669    0.37918   -0.09279   -0.63811    9
   13      0.228D-05      0.227D-06      -267.26535124    555.767584    0.37918   -0.09279   -0.63811    9
   14      0.633D-06      0.761D-07      -267.26535124    555.767593    0.37918   -0.09279   -0.63811    9
   15      0.193D-06      0.302D-07      -267.26535124    555.767589    0.37918   -0.09279   -0.63811    9
   16      0.830D-07      0.146D-07      -267.26535124    555.767591    0.37918   -0.09279   -0.63811    9
   17      0.377D-07      0.756D-08      -267.26535124    555.767591    0.37918   -0.09279   -0.63811    9
   18      0.224D-07      0.343D-08      -267.26535124    555.767591    0.37918   -0.09279   -0.63811    9
   19      0.115D-07      0.134D-08      -267.26535124    555.767591    0.37918   -0.09279   -0.63811    9
   20      0.446D-08      0.571D-09      -267.26535124    555.767591    0.37918   -0.09279   -0.63811    9
   21      0.167D-08      0.288D-09      -267.26535124    555.767591    0.37918   -0.09279   -0.63811    9
   22      0.760D-09      0.163D-09      -267.26535124    555.767591    0.37918   -0.09279   -0.63811    9
   23      0.448D-09      0.800D-10      -267.26535124    555.767591    0.37918   -0.09279   -0.63811    9
   24      0.265D-09      0.319D-10      -267.26535124    555.767591    0.37918   -0.09279   -0.63811    9
   25      0.938D-10      0.130D-10      -267.26535124    555.767591    0.37918   -0.09279   -0.63811    0

 Final alpha occupancy:  21
 Final beta  occupancy:  20

 !RHF STATE 1.1 Energy               -267.265351236207
 Nuclear energy                       183.22415356
 One-electron energy                 -728.37330017
 Two-electron energy                  277.88379537
 Virial quotient                       -1.00155959
 !RHF STATE 1.1 Dipole moment           0.37918442    -0.09279260    -0.63811117
 Dipole moment /Debye                   0.96372755    -0.23583982    -1.62181058

 Orbital energies:

         1.1          2.1          3.1          4.1          5.1          6.1          7.1          8.1          9.1         10.1
    -20.630491   -20.628865   -11.279152   -11.237983   -11.232174    -1.470176    -1.240752    -1.023198    -0.945301    -0.768439

        11.1         12.1         13.1         14.1         15.1         16.1         17.1         18.1         19.1         20.1
     -0.704552    -0.642999    -0.626788    -0.588779    -0.545165    -0.543319    -0.538982    -0.516879    -0.493026    -0.469831

        21.1         22.1         23.1
     -0.351999     0.181222     0.183486


 **********************************************************************************************************************************
 DATASETS  * FILE   NREC   LENGTH (MB)   RECORD NAMES
              1      18        3.17       500      610      700      900      950      970     1000      129      960     1100   
                                          VAR    BASINP    GEOM    SYMINP    ZMAT    AOBASIS   BASIS     P2S    ABASIS      S 
                                         1400     1410     1200     1210     1080     1600     1650     1700   
                                           T        V       H0       H01     AOSYM     SMH    MOLCAS    OPER   

              2       3        0.77       700     1000     2100   
                                         GEOM     BASIS     RHF  

 PROGRAMS   *        TOTAL       RHF       INT
 CPU TIMES  *         2.63      1.31      1.22
 REAL TIME  *         3.06 SEC
 DISK USED  *       321.74 MB      
 SF USED    *         0.04 MB      
 GA USED    *         0.00 MB       (max)       0.00 MB       (current)
 **********************************************************************************************************************************


1PROGRAM * CCSD (Unrestricted open-shell coupled cluster)     Authors: C. Hampel, H.-J. Werner, 1991, M. Deegan, P.J. Knowles, 1992


 Convergence thresholds:  THRVAR = 1.00D-08  THRDEN = 1.00D-10

 CCSD(T)     terms to be evaluated (factor= 1.000)


 Number of core orbitals:           5 (   5 )
 Number of closed-shell orbitals:  15 (  15 )
 Number of active  orbitals:        1 (   1 )
 Number of external orbitals:      84 (  84 )

 Memory could be reduced to 24.91 Mwords without degradation in triples

 Number of N-1 electron functions:              31
 Number of N-2 electron functions:             465
 Number of singly external CSFs:              2635
 Number of doubly external CSFs:           2537250
 Total number of CSFs:                     2539885

 Molecular orbitals read from record     2100.2  Type=RHF/CANONICAL (state 1.1)

 Integral transformation finished. Total CPU:   1.12 sec, npass=  1  Memory used:  12.63 MW

 Starting RMP2 calculation

 ITER.      SQ.NORM     CORR.ENERGY   TOTAL ENERGY   ENERGY CHANGE        DEN1      VAR(S)    VAR(P)  DIIS     TIME
   1      1.24305505    -0.78641218  -268.05176341    -0.78641218    -0.00304993  0.20D-04  0.11D-02  1  1     1.48
   2      1.24569674    -0.78970130  -268.05505254    -0.00328913    -0.00000474  0.54D-06  0.19D-05  2  2     1.81
   3      1.24576230    -0.78974337  -268.05509460    -0.00004206    -0.00000003  0.16D-07  0.68D-08  3  3     2.18
   4      1.24576325    -0.78974337  -268.05509461    -0.00000000    -0.00000000  0.27D-09  0.38D-10  4  4     2.58
   5      1.24576333    -0.78974340  -268.05509464    -0.00000003    -0.00000000  0.25D-11  0.65D-12  5  5     3.01
   6      1.24576334    -0.78974341  -268.05509465    -0.00000001    -0.00000000  0.28D-13  0.86D-14  6  6     3.46
   7      1.24576334    -0.78974341  -268.05509465     0.00000000    -0.00000000  0.47D-15  0.12D-15  6  1     3.92
   8      1.24576334    -0.78974341  -268.05509465     0.00000000    -0.00000000  0.60D-17  0.13D-17  6  2     4.38

 Norm of t1 vector:      0.03895418      S-energy:    -0.00227408      T1 diagnostic:  0.00055011
 Norm of t2 vector:      0.49421242      P-energy:    -0.78746933
                                         Alpha-Beta:  -0.59344137
                                         Alpha-Alpha: -0.10094582
                                         Beta-Beta:   -0.09308214

 Spin contamination <S**2-Sz**2-Sz>     0.00104095
  Reference energy                   -267.265351236205
  RHF-RMP2 correlation energy          -0.789743409147
 !RHF-RMP2 energy                    -268.055094645352

 Starting UCCSD calculation

 ITER.      SQ.NORM     CORR.ENERGY   TOTAL ENERGY   ENERGY CHANGE        DEN1      VAR(S)    VAR(P)  DIIS     TIME
   1      1.26283071    -0.80908055  -268.07443179    -0.80908055    -0.02515868  0.38D-02  0.59D-02  1  1    11.10
   2      1.29161143    -0.83649306  -268.10184430    -0.02741252    -0.00201146  0.22D-03  0.66D-03  2  2    17.82
   3      1.30155563    -0.84099253  -268.10634377    -0.00449947    -0.00032463  0.19D-03  0.56D-04  3  3    24.57
   4      1.30646986    -0.84246992  -268.10782116    -0.00147739    -0.00007209  0.43D-04  0.14D-04  4  4    31.36
   5      1.30919982    -0.84285802  -268.10820926    -0.00038810    -0.00002368  0.19D-04  0.32D-05  5  5    38.09
   6      1.31113968    -0.84306251  -268.10841375    -0.00020449    -0.00000647  0.42D-05  0.12D-05  6  6    44.92
   7      1.31209035    -0.84312135  -268.10847259    -0.00005884    -0.00000209  0.14D-05  0.37D-06  6  2    51.74
   8      1.31253337    -0.84316411  -268.10851535    -0.00004276    -0.00000066  0.45D-06  0.11D-06  6  1    58.56
   9      1.31271972    -0.84316874  -268.10851998    -0.00000463    -0.00000022  0.15D-06  0.35D-07  6  4    65.43
  10      1.31278339    -0.84317169  -268.10852292    -0.00000295    -0.00000005  0.35D-07  0.96D-08  6  3    72.26
  11      1.31281310    -0.84317043  -268.10852167     0.00000125    -0.00000002  0.13D-07  0.28D-08  6  5    79.11
  12      1.31282355    -0.84317018  -268.10852141     0.00000026    -0.00000000  0.26D-08  0.96D-09  6  6    89.59
  13      1.31282240    -0.84316926  -268.10852049     0.00000092    -0.00000000  0.96D-09  0.29D-09  6  2    98.75
  14      1.31281718    -0.84316841  -268.10851964     0.00000085    -0.00000000  0.21D-09  0.68D-10  6  1   105.58
  15      1.31281310    -0.84316782  -268.10851906     0.00000059    -0.00000000  0.78D-10  0.19D-10  6  4   112.41
  16      1.31280991    -0.84316744  -268.10851867     0.00000038    -0.00000000  0.28D-10  0.63D-11  6  3   119.27
  17      1.31280771    -0.84316720  -268.10851843     0.00000024    -0.00000000  0.10D-10  0.24D-11  6  5   126.12
  18      1.31280680    -0.84316714  -268.10851837     0.00000006    -0.00000000  0.41D-11  0.88D-12  6  6   132.95
  19      1.31280619    -0.84316710  -268.10851834     0.00000003    -0.00000000  0.16D-11  0.37D-12  6  2   139.78
  20      1.31280586    -0.84316709  -268.10851833     0.00000001    -0.00000000  0.60D-12  0.13D-12  6  1   146.66
  21      1.31280570    -0.84316708  -268.10851832     0.00000001    -0.00000000  0.28D-12  0.58D-13  6  4   153.48
  22      1.31280558    -0.84316707  -268.10851831     0.00000001    -0.00000000  0.74D-13  0.22D-13  6  3   160.32
  23      1.31280552    -0.84316707  -268.10851831     0.00000000    -0.00000000  0.22D-13  0.63D-14  6  5   167.16
  24      1.31280551    -0.84316707  -268.10851831    -0.00000000    -0.00000000  0.68D-14  0.23D-14  6  6   174.00
  25      1.31280552    -0.84316707  -268.10851831    -0.00000000    -0.00000000  0.21D-14  0.53D-15  6  2   180.83
  26      1.31280552    -0.84316707  -268.10851831    -0.00000000    -0.00000000  0.77D-15  0.15D-15  6  1   187.68
  27      1.31280553    -0.84316707  -268.10851831    -0.00000000    -0.00000000  0.20D-15  0.63D-16  6  3   194.50
  28      1.31280554    -0.84316707  -268.10851831    -0.00000000    -0.00000000  0.30D-16  0.11D-16  6  4   201.34
  29      1.31280554    -0.84316707  -268.10851831    -0.00000000    -0.00000000  0.71D-17  0.29D-17  6  5   208.13
  30      1.31280554    -0.84316707  -268.10851831    -0.00000000    -0.00000000  0.15D-17  0.54D-18  6  6   214.94
  31      1.31280554    -0.84316707  -268.10851831    -0.00000000    -0.00000000  0.36D-18  0.11D-18  6  2   221.76

 Norm of t1 vector:      0.13873770      S-energy:    -0.00282417      T1 diagnostic:  0.01617010
                                                                       D1 diagnostic:  0.06278398
 Norm of t2 vector:      0.54180937      P-energy:    -0.84034291
                                         Alpha-Beta:  -0.66489539
                                         Alpha-Alpha: -0.09147643
                                         Beta-Beta:   -0.08397109

 Spin contamination <S**2-Sz**2-Sz>     0.00217544

 Memory could be reduced to 28.85 Mwords without degradation in triples
 

 RESULTS
 =======

  Reference energy                   -267.265351236205
  UCCSD singles energy                 -0.002824165710
  UCCSD pair energy                    -0.840342907895
  UCCSD correlation energy             -0.843167073606
  Triples (T) contribution             -0.024978262587
  Total correlation energy             -0.868145336193
 
  RHF-UCCSD energy                   -268.108518309811
  RHF-UCCSD[T] energy                -268.134832192355
  RHF-UCCSD-T energy                 -268.133075214437
 !RHF-UCCSD(T) energy                -268.133496572398

 Program statistics:

 Available memory in ccsd:               999997692
 Min. memory needed in ccsd:               7337057
 Max. memory used in ccsd:                10523002
 Max. memory used in cckext:              10867977 (31 integral passes)
 Max. memory used in cckint:              12633073 ( 1 integral passes)



 **********************************************************************************************************************************
 DATASETS  * FILE   NREC   LENGTH (MB)   RECORD NAMES
              1      18        3.17       500      610      700      900      950      970     1000      129      960     1100   
                                          VAR    BASINP    GEOM    SYMINP    ZMAT    AOBASIS   BASIS     P2S    ABASIS      S 
                                         1400     1410     1200     1210     1080     1600     1650     1700   
                                           T        V       H0       H01     AOSYM     SMH    MOLCAS    OPER   

              2       3        0.77       700     1000     2100   
                                         GEOM     BASIS     RHF  

 PROGRAMS   *        TOTAL  UCCSD(T)       RHF       INT
 CPU TIMES  *       285.42    282.79      1.31      1.22
 REAL TIME  *       299.97 SEC
 DISK USED  *         1.29 GB      
 SF USED    *       553.73 MB      
 GA USED    *         0.00 MB       (max)       0.00 MB       (current)
 **********************************************************************************************************************************

        UCCSD(T)        RHF-SCF 
   -268.13349657   -267.26535124
 **********************************************************************************************************************************
 Variable memory released
