
 Primary working directories    : /tmp/320938.624.gen4.q
 Secondary working directories  : /tmp/320938.624.gen4.q
 Wavefunction directory         : /home/vulcan/mel64643/wfu/
 Main file repository           : /tmp/320938.624.gen4.q/

 ARCHNAME  : Linux/x86_64
 FC        : /opt/intel/compilers_and_libraries_2016.1.150/linux/bin/intel64/ifort
 FCVERSION : 16.0.1
 BLASLIB   : -mkl
 id        : ccgc

 Nodes     nprocs
 n048         3
 Number of processes for MPI-2 version of Molpro:   nprocs(total)=    4   nprocs(compute)=    3   nprocs(helper)=    1
 ga_uses_ma=false, calling ma_init with nominal heap.
 GA-space will be limited to   8.0 MW (determined by -G option)

 Using customized tuning parameters: mindgm=10; mindgv=16; mindgc=4; mindgr=1; noblas=0; mincuda=1000; minvec=7
 default implementation of scratch files=sf  

 ***,Frequencies for min3
 memory,1000,m
 gthresh,energy=1.0d-10,orbital=1.0d-10,oneint=1.0d-16,twoint=1.0d-16,optgrad=1.0d-6,compress=1.0d-13
 geomtyp=xyz
 
  geometry = {
  12
  arbitrary comment
     C    1.777650235407    0.711470272662   -0.047336950898
     C    0.491677678169   -0.059972913015   -0.195859926233
     C    0.450260679685   -1.536276102999    0.101222706907
     O   -0.560905321503    0.727223573351    0.254259900204
     O   -1.838001871421    0.092188529858   -0.120527178716
     H    2.585144494576    0.211523605686   -0.612006692911
     H    1.660163922811    1.742921434693   -0.427066973243
     H    2.095081412266    0.774179586996    1.017115233306
     H   -0.504967739837   -1.982812309941   -0.220131790370
     H    1.281774784561   -2.047184964550   -0.417430054244
     H    0.561858420007   -1.719085124821    1.194545385692
     H   -1.988332769593    0.550701981735   -0.966998323248
  }
 
 basis=cc-pvdz
 {rhf;maxit,200}
 {uccsd(t);maxit,200}

 Variables initialized (661), CPU time= 0.00 sec
 Commands  initialized (458), CPU time= 0.01 sec, 486 directives.
 Default parameters read. Elapsed time= 0.06 sec

 Checking input...
 Passed
1


                                         ***  PROGRAM SYSTEM MOLPRO  ***
                         Copyright, University College Cardiff Consultants Limited, 2008

                                    Version 2010.1 linked May 16 2016 07:17:05


 **********************************************************************************************************************************
 LABEL *   Frequencies for min3                                                          
 Linux-4.4.3/n048(x86_64) 64 bit mpp version                                             DATE: 07-Mar-20          TIME: 04:38:05  
 **********************************************************************************************************************************

 SHA1:             9e8077add272b0f3cad6f7df79ec5211205f459d
 **********************************************************************************************************************************

 THRESHOLDS:

 ZERO    =  1.00D-12  ONEINT  =  1.00D-16  TWOINT  =  1.00D-16  PREFAC  =  1.00D-14  LOCALI  =  1.00D-09  EORDER  =  1.00D-04
 ENERGY  =  1.00D-10  ETEST   =  0.00D+00  EDENS   =  0.00D+00  THRDEDEF=  1.00D-06  GRADIENT=  1.00D-02  STEP    =  1.00D-03
 ORBITAL =  1.00D-10  CIVEC   =  1.00D-05  COEFF   =  1.00D-04  PRINTCI =  5.00D-02  PUNCHCI =  9.90D+01  OPTGRAD =  1.00D-06
 OPTENERG=  1.00D-06  OPTSTEP =  3.00D-04  THRGRAD =  1.00D-10  COMPRESS=  1.00D-13  VARMIN  =  1.00D-07  VARMAX  =  1.00D-03
 THRDOUB =  0.00D+00  THRDIV  =  1.00D-05  THRRED  =  1.00D-07  THRPSP  =  1.00D+00  THRDC   =  1.00D-10  THRCS   =  1.00D-10
 THRNRM  =  1.00D-08  THREQ   =  0.00D+00  THRDE   =  1.00D+00  THRREF  =  1.00D-05  SPARFAC =  1.00D+00  THRDLP  =  1.00D-07
 THRDIA  =  1.00D-10  THRDLS  =  1.00D-07  THRGPS  =  0.00D+00  THRKEX  =  0.00D+00  THRDIS  =  2.00D-01  THRVAR  =  1.00D-10
 THRLOC  =  1.00D-06  THRGAP  =  1.00D-06  THRLOCT = -1.00D+00  THRGAPT = -1.00D+00  THRORB  =  1.00D-06  THRMLTP =  0.00D+00
 THRCPQCI=  1.00D-10  KEXTA   =  0.00D+00  THRCOARS=  0.00D+00  SYMTOL  =  1.00D-06  GRADTOL =  1.00D-06  THROVL  =  1.00D-08
 THRORTH =  1.00D-08  GRID    =  1.00D-06  GRIDMAX =  1.00D-03  DTMAX   =  0.00D+00

 SETTING GEOMTYP        =    XYZ

 Variable memory set to 1000000000 words,  buffer space   230000 words

 SETTING BASIS          =    CC-PVDZ


 Recomputing integrals since basis changed


 Using spherical harmonics

 Library entry C      S cc-pVDZ              selected for orbital group  1
 Library entry C      P cc-pVDZ              selected for orbital group  1
 Library entry C      D cc-pVDZ              selected for orbital group  1
 Library entry O      S cc-pVDZ              selected for orbital group  2
 Library entry O      P cc-pVDZ              selected for orbital group  2
 Library entry O      D cc-pVDZ              selected for orbital group  2
 Library entry H      S cc-pVDZ              selected for orbital group  3
 Library entry H      P cc-pVDZ              selected for orbital group  3

1PROGRAM * SEWARD (Integral evaluation for generally contracted gaussian basis sets)     Author: Roland Lindh, 1990

 Geometry written to block  1 of record 700


 Point group  C1  



 ATOMIC COORDINATES

 NR  ATOM    CHARGE       X              Y              Z

   1  C       6.00    3.359272102    1.344483966   -0.089453873
   2  C       6.00    0.929136157   -0.113332381   -0.370121621
   3  C       6.00    0.850869372   -2.903141097    0.191283194
   4  O       8.00   -1.059957443    1.374253390    0.480481578
   5  O       8.00   -3.473320166    0.174211074   -0.227763359
   6  H       1.00    4.885215105    0.399721685   -1.156525040
   7  H       1.00    3.137255147    3.293644180   -0.807039619
   8  H       1.00    3.959130092    1.462987396    1.922069235
   9  H       1.00   -0.954250733   -3.746972236   -0.415988797
  10  H       1.00    2.422203305   -3.868618923   -0.788828482
  11  H       1.00    1.061758538   -3.248600083    2.257363631
  12  H       1.00   -3.757404393    1.040675926   -1.827362000

 Bond lengths in Bohr (Angstrom)

 1-2  2.847729552  1-6  2.087993939  1-7  2.088886395  1-8  2.102402884  2-3  2.846811151
     ( 1.506953576)     ( 1.104918805)     ( 1.105391073)     ( 1.112543690)     ( 1.506467579)

  2- 4  2.625439121   3- 9  2.083095979   3-10  2.088505844   3-11  2.105351401   4- 5  2.786760141
       ( 1.389322546)       ( 1.102326916)       ( 1.105189693)       ( 1.114103978)       ( 1.474689953)

  5-12  1.841244416
       ( 0.974344581)

 Bond angles

  1-2-3  120.37763209   1-2-4  108.93744620   2-1-6  109.97744643   2-1-7  110.67846565

  2- 1- 8  111.50814740   2- 3- 9  111.30349992   2- 3-10  109.86435254   2- 3-11  110.58356007

  2- 4- 5  109.25523950   3- 2- 4  118.06926991   4- 5-12   98.72910104   6- 1- 7  108.92458930

  6- 1- 8  107.81513673   7- 1- 8  107.84276460   9- 3-10  109.14141708   9- 3-11  107.84352470

 10- 3-11  108.01808067

 NUCLEAR CHARGE:                   41
 NUMBER OF PRIMITIVE AOS:         184
 NUMBER OF SYMMETRY AOS:          179
 NUMBER OF CONTRACTIONS:          105   ( 105A   )
 NUMBER OF CORE ORBITALS:           5   (   5A   )
 NUMBER OF VALENCE ORBITALS:       27   (  27A   )


 NUCLEAR REPULSION ENERGY  183.21844694


 Eigenvalues of metric

         1 0.346E-02 0.435E-02 0.105E-01 0.141E-01 0.182E-01 0.214E-01 0.331E-01 0.345E-01


 Contracted 2-electron integrals neglected if value below      1.0D-16
 AO integral compression algorithm  1   Integral accuracy      1.0D-16

     127.402 MB (compressed) written to integral file ( 93.4%)

     Node minimum: 41.419 MB, node maximum: 44.040 MB


 NUMBER OF SORTED TWO-ELECTRON INTEGRALS:    5164320.     BUFFER LENGTH:  32768
 NUMBER OF SEGMENTS:   1  SEGMENT LENGTH:    5164320      RECORD LENGTH: 524288

 Memory used in sort:       5.72 MW

 SORT1 READ    17075251. AND WROTE     5135913. INTEGRALS IN     15 RECORDS. CPU TIME:     0.21 SEC, REAL TIME:     0.25 SEC
 SORT2 READ    15396645. AND WROTE    15487395. INTEGRALS IN    480 RECORDS. CPU TIME:     0.08 SEC, REAL TIME:     0.11 SEC

 Node minimum:     5160610.  Node maximum:     5164320. integrals

 OPERATOR DM      FOR CENTER  0  COORDINATES:    0.000000    0.000000    0.000000


 **********************************************************************************************************************************
 DATASETS  * FILE   NREC   LENGTH (MB)   RECORD NAMES
              1      18        3.17       500      610      700      900      950      970     1000      129      960     1100   
                                          VAR    BASINP    GEOM    SYMINP    ZMAT    AOBASIS   BASIS     P2S    ABASIS      S 
                                         1400     1410     1200     1210     1080     1600     1650     1700   
                                           T        V       H0       H01     AOSYM     SMH    MOLCAS    OPER   

 PROGRAMS   *        TOTAL       INT
 CPU TIMES  *         0.95      0.88
 REAL TIME  *         1.40 SEC
 DISK USED  *       305.43 MB      
 GA USED    *         0.00 MB       (max)       0.00 MB       (current)
 **********************************************************************************************************************************

1PROGRAM * RHF-SCF (OPEN SHELL)       Authors: W. Meyer, H.-J. Werner


 NUMBER OF ELECTRONS:      21+   20-    SPACE SYMMETRY=1    SPIN SYMMETRY: Doublet 
 CONVERGENCE THRESHOLDS:    1.00E-10 (Density)    1.00E-11 (Energy)
 MAX. NUMBER OF ITERATIONS:      200
 INTERPOLATION TYPE:            DIIS
 INTERPOLATION STEPS:              2 (START)      1 (STEP)
 LEVEL SHIFTS:                 -0.30 (CLOSED)  0.00 (OPEN) 



 Orbital guess generated from atomic densities. Full valence occupancy:   32

 Molecular orbital dump at record        2100.2

 ITERATION    DDIFF          GRAD             ENERGY        2-EL.EN.            DIPOLE MOMENTS         DIIS
    1      0.000D+00      0.000D+00      -267.17824572    555.809319    0.56980    0.04941   -0.74953    0
    2      0.000D+00      0.617D-02      -267.24892337    555.731264    0.41356   -0.13114   -0.59871    1
    3      0.928D-02      0.214D-02      -267.26110689    555.649235    0.39337   -0.05912   -0.62600    2
    4      0.336D-02      0.912D-03      -267.26472161    555.801511    0.37874   -0.09927   -0.64234    3
    5      0.186D-02      0.364D-03      -267.26529300    555.772940    0.38128   -0.09280   -0.63533    4
    6      0.793D-03      0.110D-03      -267.26537005    555.759184    0.37953   -0.09261   -0.63807    5
    7      0.278D-03      0.513D-04      -267.26539040    555.756166    0.37881   -0.09236   -0.63756    6
    8      0.144D-03      0.274D-04      -267.26539652    555.754219    0.37908   -0.09247   -0.63778    7
    9      0.929D-04      0.115D-04      -267.26539745    555.754533    0.37927   -0.09243   -0.63754    8
   10      0.367D-04      0.503D-05      -267.26539760    555.755148    0.37952   -0.09244   -0.63761    9
   11      0.147D-04      0.197D-05      -267.26539763    555.754988    0.37958   -0.09244   -0.63761    9
   12      0.653D-05      0.672D-06      -267.26539763    555.755123    0.37960   -0.09244   -0.63761    9
   13      0.228D-05      0.227D-06      -267.26539763    555.755039    0.37960   -0.09244   -0.63760    9
   14      0.634D-06      0.761D-07      -267.26539763    555.755048    0.37960   -0.09244   -0.63760    9
   15      0.194D-06      0.303D-07      -267.26539763    555.755043    0.37960   -0.09244   -0.63760    9
   16      0.831D-07      0.147D-07      -267.26539763    555.755045    0.37960   -0.09244   -0.63760    9
   17      0.379D-07      0.758D-08      -267.26539763    555.755045    0.37960   -0.09244   -0.63760    9
   18      0.225D-07      0.344D-08      -267.26539763    555.755045    0.37960   -0.09244   -0.63760    9
   19      0.115D-07      0.134D-08      -267.26539763    555.755045    0.37960   -0.09244   -0.63760    9
   20      0.446D-08      0.573D-09      -267.26539763    555.755045    0.37960   -0.09244   -0.63760    9
   21      0.167D-08      0.289D-09      -267.26539763    555.755045    0.37960   -0.09244   -0.63760    9
   22      0.763D-09      0.163D-09      -267.26539763    555.755045    0.37960   -0.09244   -0.63760    9
   23      0.450D-09      0.803D-10      -267.26539763    555.755045    0.37960   -0.09244   -0.63760    9
   24      0.266D-09      0.320D-10      -267.26539763    555.755045    0.37960   -0.09244   -0.63760    9
   25      0.942D-10      0.130D-10      -267.26539763    555.755045    0.37960   -0.09244   -0.63760    0

 Final alpha occupancy:  21
 Final beta  occupancy:  20

 !RHF STATE 1.1 Energy               -267.265397633039
 Nuclear energy                       183.21844694
 One-electron energy                 -728.36136717
 Two-electron energy                  277.87752259
 Virial quotient                       -1.00155299
 !RHF STATE 1.1 Dipole moment           0.37960041    -0.09244246    -0.63760422
 Dipole moment /Debye                   0.96478481    -0.23494991    -1.62052214

 Orbital energies:

         1.1          2.1          3.1          4.1          5.1          6.1          7.1          8.1          9.1         10.1
    -20.630489   -20.628847   -11.279180   -11.237845   -11.232167    -1.470216    -1.240792    -1.023162    -0.945343    -0.768475

        11.1         12.1         13.1         14.1         15.1         16.1         17.1         18.1         19.1         20.1
     -0.704627    -0.642952    -0.626791    -0.588837    -0.545097    -0.543424    -0.539224    -0.516886    -0.493036    -0.469749

        21.1         22.1         23.1
     -0.352046     0.181263     0.183539


 **********************************************************************************************************************************
 DATASETS  * FILE   NREC   LENGTH (MB)   RECORD NAMES
              1      18        3.17       500      610      700      900      950      970     1000      129      960     1100   
                                          VAR    BASINP    GEOM    SYMINP    ZMAT    AOBASIS   BASIS     P2S    ABASIS      S 
                                         1400     1410     1200     1210     1080     1600     1650     1700   
                                           T        V       H0       H01     AOSYM     SMH    MOLCAS    OPER   

              2       3        0.77       700     1000     2100   
                                         GEOM     BASIS     RHF  

 PROGRAMS   *        TOTAL       RHF       INT
 CPU TIMES  *         2.05      1.10      0.88
 REAL TIME  *         2.65 SEC
 DISK USED  *       322.00 MB      
 SF USED    *         0.04 MB      
 GA USED    *         0.00 MB       (max)       0.00 MB       (current)
 **********************************************************************************************************************************


1PROGRAM * CCSD (Unrestricted open-shell coupled cluster)     Authors: C. Hampel, H.-J. Werner, 1991, M. Deegan, P.J. Knowles, 1992


 Convergence thresholds:  THRVAR = 1.00D-08  THRDEN = 1.00D-10

 CCSD(T)     terms to be evaluated (factor= 1.000)


 Number of core orbitals:           5 (   5 )
 Number of closed-shell orbitals:  15 (  15 )
 Number of active  orbitals:        1 (   1 )
 Number of external orbitals:      84 (  84 )

 Memory could be reduced to 24.91 Mwords without degradation in triples

 Number of N-1 electron functions:              31
 Number of N-2 electron functions:             465
 Number of singly external CSFs:              2635
 Number of doubly external CSFs:           2537250
 Total number of CSFs:                     2539885

 Molecular orbitals read from record     2100.2  Type=RHF/CANONICAL (state 1.1)

 Integral transformation finished. Total CPU:   0.93 sec, npass=  1  Memory used:  12.63 MW

 Starting RMP2 calculation

 ITER.      SQ.NORM     CORR.ENERGY   TOTAL ENERGY   ENERGY CHANGE        DEN1      VAR(S)    VAR(P)  DIIS     TIME
   1      1.24302273    -0.78636984  -268.05176748    -0.78636984    -0.00304934  0.20D-04  0.11D-02  1  1     1.25
   2      1.24566361    -0.78965832  -268.05505596    -0.00328848    -0.00000474  0.54D-06  0.19D-05  2  2     1.56
   3      1.24572912    -0.78970037  -268.05509800    -0.00004204    -0.00000003  0.16D-07  0.68D-08  3  3     1.90
   4      1.24573007    -0.78970037  -268.05509800    -0.00000000    -0.00000000  0.27D-09  0.38D-10  4  4     2.26
   5      1.24573016    -0.78970040  -268.05509803    -0.00000003    -0.00000000  0.25D-11  0.65D-12  5  5     2.64
   6      1.24573017    -0.78970041  -268.05509804    -0.00000001    -0.00000000  0.28D-13  0.86D-14  6  6     3.05
   7      1.24573017    -0.78970041  -268.05509804     0.00000000    -0.00000000  0.47D-15  0.12D-15  6  1     3.46
   8      1.24573017    -0.78970041  -268.05509804     0.00000000    -0.00000000  0.60D-17  0.13D-17  6  2     3.88

 Norm of t1 vector:      0.03894718      S-energy:    -0.00227339      T1 diagnostic:  0.00054991
 Norm of t2 vector:      0.49417941      P-energy:    -0.78742702
                                         Alpha-Beta:  -0.59340911
                                         Alpha-Alpha: -0.10094054
                                         Beta-Beta:   -0.09307736

 Spin contamination <S**2-Sz**2-Sz>     0.00104090
  Reference energy                   -267.265397633040
  RHF-RMP2 correlation energy          -0.789700405586
 !RHF-RMP2 energy                    -268.055098038626

 Starting UCCSD calculation

 ITER.      SQ.NORM     CORR.ENERGY   TOTAL ENERGY   ENERGY CHANGE        DEN1      VAR(S)    VAR(P)  DIIS     TIME
   1      1.26279835    -0.80904534  -268.07444297    -0.80904534    -0.02515431  0.38D-02  0.59D-02  1  1     9.32
   2      1.29157033    -0.83645322  -268.10185085    -0.02740788    -0.00201065  0.22D-03  0.66D-03  2  2    14.74
   3      1.30150960    -0.84095062  -268.10634825    -0.00449740    -0.00032455  0.19D-03  0.56D-04  3  3    20.12
   4      1.30642212    -0.84242743  -268.10782507    -0.00147682    -0.00007209  0.43D-04  0.14D-04  4  4    25.52
   5      1.30915218    -0.84281551  -268.10821314    -0.00038808    -0.00002368  0.19D-04  0.32D-05  5  5    31.55
   6      1.31109246    -0.84302003  -268.10841766    -0.00020452    -0.00000647  0.42D-05  0.12D-05  6  6    37.00
   7      1.31204340    -0.84307889  -268.10847653    -0.00005886    -0.00000209  0.14D-05  0.37D-06  6  2    42.57
   8      1.31248658    -0.84312166  -268.10851930    -0.00004277    -0.00000066  0.45D-06  0.11D-06  6  1    48.03
   9      1.31267299    -0.84312629  -268.10852392    -0.00000463    -0.00000022  0.15D-06  0.35D-07  6  4    53.47
  10      1.31273667    -0.84312923  -268.10852687    -0.00000294    -0.00000005  0.35D-07  0.96D-08  6  3    58.94
  11      1.31276639    -0.84312798  -268.10852562     0.00000125    -0.00000002  0.13D-07  0.28D-08  6  5    64.44
  12      1.31277686    -0.84312773  -268.10852536     0.00000026    -0.00000000  0.26D-08  0.96D-09  6  6    69.94
  13      1.31277571    -0.84312681  -268.10852444     0.00000092    -0.00000000  0.96D-09  0.29D-09  6  2    75.49
  14      1.31277049    -0.84312596  -268.10852359     0.00000085    -0.00000000  0.21D-09  0.68D-10  6  1    81.00
  15      1.31276641    -0.84312537  -268.10852300     0.00000059    -0.00000000  0.78D-10  0.19D-10  6  4    86.52
  16      1.31276322    -0.84312499  -268.10852262     0.00000038    -0.00000000  0.28D-10  0.63D-11  6  3    92.02
  17      1.31276101    -0.84312475  -268.10852238     0.00000024    -0.00000000  0.10D-10  0.24D-11  6  5    97.51
  18      1.31276010    -0.84312469  -268.10852232     0.00000006    -0.00000000  0.41D-11  0.88D-12  6  6   102.96
  19      1.31275949    -0.84312465  -268.10852229     0.00000003    -0.00000000  0.16D-11  0.37D-12  6  2   108.47
  20      1.31275917    -0.84312464  -268.10852228     0.00000001    -0.00000000  0.60D-12  0.13D-12  6  1   114.00
  21      1.31275900    -0.84312463  -268.10852227     0.00000001    -0.00000000  0.28D-12  0.58D-13  6  4   119.48
  22      1.31275888    -0.84312462  -268.10852226     0.00000001    -0.00000000  0.74D-13  0.22D-13  6  3   124.95
  23      1.31275882    -0.84312462  -268.10852225     0.00000000    -0.00000000  0.22D-13  0.63D-14  6  5   130.44
  24      1.31275882    -0.84312462  -268.10852225    -0.00000000    -0.00000000  0.68D-14  0.23D-14  6  6   135.88
  25      1.31275882    -0.84312462  -268.10852226    -0.00000000    -0.00000000  0.21D-14  0.53D-15  6  2   141.33
  26      1.31275883    -0.84312462  -268.10852226    -0.00000000    -0.00000000  0.77D-15  0.15D-15  6  1   146.82
  27      1.31275884    -0.84312462  -268.10852226    -0.00000000    -0.00000000  0.20D-15  0.63D-16  6  3   152.35
  28      1.31275884    -0.84312462  -268.10852226    -0.00000000    -0.00000000  0.30D-16  0.11D-16  6  4   157.90
  29      1.31275884    -0.84312462  -268.10852226    -0.00000000    -0.00000000  0.71D-17  0.29D-17  6  5   163.43
  30      1.31275885    -0.84312462  -268.10852226    -0.00000000    -0.00000000  0.15D-17  0.54D-18  6  6   168.91
  31      1.31275885    -0.84312462  -268.10852226    -0.00000000    -0.00000000  0.36D-18  0.11D-18  6  2   174.37

 Norm of t1 vector:      0.13872669      S-energy:    -0.00282348      T1 diagnostic:  0.01616875
                                                                       D1 diagnostic:  0.06278751
 Norm of t2 vector:      0.54176909      P-energy:    -0.84030114
                                         Alpha-Beta:  -0.66485762
                                         Alpha-Alpha: -0.09147431
                                         Beta-Beta:   -0.08396921

 Spin contamination <S**2-Sz**2-Sz>     0.00217587

 Memory could be reduced to 28.85 Mwords without degradation in triples
 

 RESULTS
 =======

  Reference energy                   -267.265397633040
  UCCSD singles energy                 -0.002823483712
  UCCSD pair energy                    -0.840301140894
  UCCSD correlation energy             -0.843124624606
  Triples (T) contribution             -0.024974637089
  Total correlation energy             -0.868099261695
 
  RHF-UCCSD energy                   -268.108522257645
  RHF-UCCSD[T] energy                -268.134832236522
  RHF-UCCSD-T energy                 -268.133075650339
 !RHF-UCCSD(T) energy                -268.133496894734

 Program statistics:

 Available memory in ccsd:               999997692
 Min. memory needed in ccsd:               7337057
 Max. memory used in ccsd:                10523002
 Max. memory used in cckext:              10867977 (31 integral passes)
 Max. memory used in cckint:              12633073 ( 1 integral passes)



 **********************************************************************************************************************************
 DATASETS  * FILE   NREC   LENGTH (MB)   RECORD NAMES
              1      18        3.17       500      610      700      900      950      970     1000      129      960     1100   
                                          VAR    BASINP    GEOM    SYMINP    ZMAT    AOBASIS   BASIS     P2S    ABASIS      S 
                                         1400     1410     1200     1210     1080     1600     1650     1700   
                                           T        V       H0       H01     AOSYM     SMH    MOLCAS    OPER   

              2       3        0.77       700     1000     2100   
                                         GEOM     BASIS     RHF  

 PROGRAMS   *        TOTAL  UCCSD(T)       RHF       INT
 CPU TIMES  *       222.30    220.25      1.10      0.88
 REAL TIME  *       233.64 SEC
 DISK USED  *         1.29 GB      
 SF USED    *       553.73 MB      
 GA USED    *         0.00 MB       (max)       0.00 MB       (current)
 **********************************************************************************************************************************

        UCCSD(T)        RHF-SCF 
   -268.13349689   -267.26539763
 **********************************************************************************************************************************
 Variable memory released
