
    -----------------------------------------------------------------------
          Psi4: An Open-Source Ab Initio Electronic Structure Package
                               Psi4 1.4a2.dev478 

                         Git: Rev {master} f722895 dirty


    R. M. Parrish, L. A. Burns, D. G. A. Smith, A. C. Simmonett,
    A. E. DePrince III, E. G. Hohenstein, U. Bozkaya, A. Yu. Sokolov,
    R. Di Remigio, R. M. Richard, J. F. Gonthier, A. M. James,
    H. R. McAlexander, A. Kumar, M. Saitow, X. Wang, B. P. Pritchard,
    P. Verma, H. F. Schaefer III, K. Patkowski, R. A. King, E. F. Valeev,
    F. A. Evangelista, J. M. Turney, T. D. Crawford, and C. D. Sherrill,
    J. Chem. Theory Comput. 13(7) pp 3185--3197 (2017).
    (doi: 10.1021/acs.jctc.7b00174)


                         Additional Contributions by
    P. Kraus, H. Kruse, M. H. Lechner, M. C. Schieber, R. A. Shaw,
    A. Alenaizan, R. Galvelis, Z. L. Glick, S. Lehtola, and J. P. Misiewicz

    -----------------------------------------------------------------------


    Psi4 started on: Friday, 05 June 2020 11:40AM

    Process ID: 322
    Host:       n067
    PSIDATADIR: /opt/psi/4/master/share/psi4
    Memory:     500.0 MiB
    Threads:    4
    
  ==> Input File <==

--------------------------------------------------------------------------
set memory 40Gb

molecule {
    C   -1.169969463277   -0.774075714550   -0.000125580240
    H   -1.617202611977   -1.211544387650   -0.890367767540
    H   -1.617274396477   -1.211731322050    0.889988080060
    C   -1.170087777377    0.773896028650    0.000044791660
    H   -1.617450892977    1.208854090095    0.890226335760
    H   -1.617227751580    1.211815953325   -0.890128822806
    C    0.356867514813    0.920198323601    0.000066590847
    H    0.841413142297    1.891613346207    0.000132620716
    O    0.760942746599    0.000127467803   -1.017879719759
    C    0.356731773072   -0.919998207064   -0.000036144183
    H    0.841134696347   -1.891484372982   -0.000075950048
    O    0.760888359535    0.000013258525    1.017931696993
}

set {
    e_convergence 10
    d_convergence 10
    freeze_core True
    basis_guess True
    cc_type conv
    maxiter 300
}

E = energy('mp2/heavy-aug-cc-pV(Q+d)Z')
psi4.print_out("\n========================OPTAVC-XTPL==========================\n\n")
psi4.print_out("MP2/QZ correlation energy {}\n".format(variable("MP2 CORRELATION ENERGY")))
psi4.print_out("SCF/QZ reference energy {}\n".format(variable("CURRENT REFERENCE ENERGY")))
psi4.print_out("\n\n=============================================================\n")

E = energy('mp2/heavy-aug-cc-pV(T+d)Z')
psi4.print_out("\n========================OPTAVC-XTPL==========================\n\n")
psi4.print_out("MP2/TZ correlation energy {}".format(variable("MP2 CORRELATION ENERGY")))
psi4.print_out("\n\n=============================================================\n")
--------------------------------------------------------------------------

Scratch directory: /tmp/

Scratch directory: /tmp/
    SCF Algorithm Type (re)set to DF.

*** tstart() called on n067
*** at Fri Jun  5 11:40:35 2020


  //>>>>>>>>>>>>>>>>>>>>>>>>>>>>>>>>>>>//
  //      Guess SCF, pcseg-0 Basis     //
  //<<<<<<<<<<<<<<<<<<<<<<<<<<<<<<<<<<<//

   => Loading Basis Set <=

    Name: PCSEG-0
    Role: ORBITAL
    Keyword: BASIS
    atoms 1, 4, 7, 10     entry C          line    71 file /opt/psi/4/master/share/psi4/basis/pcseg-0.gbs 
    atoms 2-3, 5-6, 8, 11 entry H          line    13 file /opt/psi/4/master/share/psi4/basis/pcseg-0.gbs 
    atoms 9, 12           entry O          line   103 file /opt/psi/4/master/share/psi4/basis/pcseg-0.gbs 


         ---------------------------------------------------------
                           SCF Castup computation                  
         ---------------------------------------------------------
                                   SCF
               by Justin Turney, Rob Parrish, Andy Simmonett
                          and Daniel G. A. Smith
                              RHF Reference
                        4 Threads,    500 MiB Core
         ---------------------------------------------------------

  ==> Geometry <==

    Molecular point group: c1
    Full point group: C1

    Geometry (in Angstrom), charge = 0, multiplicity = 1:

       Center              X                  Y                   Z               Mass       
    ------------   -----------------  -----------------  -----------------  -----------------
         C           -1.169969463277    -0.774075714550    -0.000125580240    12.000000000000
         H           -1.617202611977    -1.211544387650    -0.890367767540     1.007825032230
         H           -1.617274396477    -1.211731322050     0.889988080060     1.007825032230
         C           -1.170087777377     0.773896028650     0.000044791660    12.000000000000
         H           -1.617450892977     1.208854090095     0.890226335760     1.007825032230
         H           -1.617227751580     1.211815953325    -0.890128822806     1.007825032230
         C            0.356867514813     0.920198323601     0.000066590847    12.000000000000
         H            0.841413142297     1.891613346207     0.000132620716     1.007825032230
         O            0.760942746599     0.000127467803    -1.017879719759    15.994914619570
         C            0.356731773072    -0.919998207064    -0.000036144183    12.000000000000
         H            0.841134696347    -1.891484372982    -0.000075950048     1.007825032230
         O            0.760888359535     0.000013258525     1.017931696993    15.994914619570

  Running in c1 symmetry.

  Rotational constants: A =      0.20031  B =      0.16407  C =      0.14759 [cm^-1]
  Rotational constants: A =   6005.03873  B =   4918.84139  C =   4424.51930 [MHz]
  Nuclear repulsion =  258.071289853485496

  Charge       = 0
  Multiplicity = 1
  Electrons    = 46
  Nalpha       = 23
  Nbeta        = 23

  ==> Algorithm <==

  SCF Algorithm Type is DF.
  DIIS enabled.
  MOM disabled.
  Fractional occupation disabled.
  Guess Type is SAD.
  Energy threshold   = 1.00e-10
  Density threshold  = 1.00e-10
  Integral threshold = 0.00e+00

  ==> Primary Basis <==

  Basis Set: PCSEG-0
    Blend: PCSEG-0
    Number of shells: 42
    Number of basis function: 66
    Number of Cartesian functions: 66
    Spherical Harmonics?: true
    Max angular momentum: 1

   => Loading Basis Set <=

    Name: (PCSEG-0 AUX)
    Role: JKFIT
    Keyword: DF_BASIS_SCF
    atoms 1, 4, 7, 10     entry C          line   198 file /opt/psi/4/master/share/psi4/basis/def2-universal-jkfit.gbs 
    atoms 2-3, 5-6, 8, 11 entry H          line    18 file /opt/psi/4/master/share/psi4/basis/def2-universal-jkfit.gbs 
    atoms 9, 12           entry O          line   318 file /opt/psi/4/master/share/psi4/basis/def2-universal-jkfit.gbs 

  ==> Integral Setup <==

  ==> DiskDFJK: Density-Fitted J/K Matrices <==

    J tasked:                  Yes
    K tasked:                  Yes
    wK tasked:                  No
    OpenMP threads:              4
    Integrals threads:           4
    Memory [MiB]:              375
    Algorithm:                Core
    Integral Cache:           NONE
    Schwarz Cutoff:          1E-12
    Fitting Condition:       1E-10

   => Auxiliary Basis Set <=

  Basis Set: (PCSEG-0 AUX)
    Blend: DEF2-UNIVERSAL-JKFIT
    Number of shells: 186
    Number of basis function: 562
    Number of Cartesian functions: 662
    Spherical Harmonics?: true
    Max angular momentum: 4

  Minimum eigenvalue in the overlap matrix is 1.2750523488E-03.
  Reciprocal condition number of the overlap matrix is 2.0988168082E-04.
    Using symmetric orthogonalization.

  ==> Pre-Iterations <==

  SCF Guess: Superposition of Atomic Densities via on-the-fly atomic UHF (no occupation information).

   -------------------------
    Irrep   Nso     Nmo    
   -------------------------
     A         66      66 
   -------------------------
    Total      66      66
   -------------------------

  ==> Iterations <==

                           Total Energy        Delta E     RMS |[F,P]|

   @DF-RHF iter SAD:  -303.78397362515454   -3.03784e+02   0.00000e+00 
   @DF-RHF iter   1:  -303.56518673137964    2.18787e-01   7.20985e-03 DIIS
   @DF-RHF iter   2:  -303.66410146807533   -9.89147e-02   3.86647e-03 DIIS
   @DF-RHF iter   3:  -303.68844912132590   -2.43477e-02   6.09832e-04 DIIS
   @DF-RHF iter   4:  -303.68958906580571   -1.13994e-03   1.89683e-04 DIIS
   @DF-RHF iter   5:  -303.68967747770904   -8.84119e-05   4.01129e-05 DIIS
   @DF-RHF iter   6:  -303.68968459678013   -7.11907e-06   8.09004e-06 DIIS
   @DF-RHF iter   7:  -303.68968496840108   -3.71621e-07   1.66998e-06 DIIS
   @DF-RHF iter   8:  -303.68968498148115   -1.30801e-08   5.23251e-07 DIIS
   @DF-RHF iter   9:  -303.68968498281311   -1.33195e-09   1.00048e-07 DIIS
   @DF-RHF iter  10:  -303.68968498287654   -6.34373e-11   1.69263e-08 DIIS
   @DF-RHF iter  11:  -303.68968498287813   -1.59162e-12   2.62725e-09 DIIS
   @DF-RHF iter  12:  -303.68968498287859   -4.54747e-13   8.94442e-10 DIIS
   @DF-RHF iter  13:  -303.68968498287842    1.70530e-13   2.64181e-10 DIIS
   @DF-RHF iter  14:  -303.68968498287802    3.97904e-13   5.31193e-11 DIIS
  Energy and wave function converged.


  ==> Post-Iterations <==

    Orbital Energies [Eh]
    ---------------------

    Doubly Occupied:                                                      

       1A    -20.583848     2A    -20.583780     3A    -11.368405  
       4A    -11.368374     5A    -11.254670     6A    -11.254262  
       7A     -1.548732     8A     -1.317315     9A     -1.091277  
      10A     -1.011022    11A     -0.822298    12A     -0.788009  
      13A     -0.770571    14A     -0.684686    15A     -0.664458  
      16A     -0.661838    17A     -0.555066    18A     -0.534418  
      19A     -0.528210    20A     -0.525281    21A     -0.518404  
      22A     -0.467599    23A     -0.441365  

    Virtual:                                                              

      24A      0.203695    25A      0.232865    26A      0.236736  
      27A      0.242109    28A      0.254676    29A      0.267711  
      30A      0.316104    31A      0.351972    32A      0.354543  
      33A      0.388115    34A      0.408853    35A      0.474141  
      36A      0.575717    37A      0.796055    38A      0.799757  
      39A      0.821423    40A      0.924757    41A      0.933969  
      42A      0.944557    43A      0.951819    44A      1.004463  
      45A      1.005540    46A      1.033547    47A      1.061476  
      48A      1.071807    49A      1.136333    50A      1.149715  
      51A      1.171700    52A      1.173074    53A      1.210683  
      54A      1.239298    55A      1.422054    56A      1.454527  
      57A      1.484916    58A      1.525906    59A      1.692561  
      60A      1.710137    61A      1.929934    62A      1.952654  
      63A      2.144802    64A      2.303193    65A      2.379090  
      66A      2.449470  

    Final Occupation by Irrep:
              A 
    DOCC [    23 ]

  @DF-RHF Final Energy:  -303.68968498287802

   => Energetics <=

    Nuclear Repulsion Energy =            258.0712898534854958
    One-Electron Energy =                -924.8341709210620820
    Two-Electron Energy =                 363.0731960846985658
    Total Energy =                       -303.6896849828780205

Computation Completed

  //>>>>>>>>>>>>>>>>>>>>>>>>>>>>>>>>>>>//
  //                SCF                //
  //<<<<<<<<<<<<<<<<<<<<<<<<<<<<<<<<<<<//

   => Loading Basis Set <=

    Name: HEAVY-AUG-CC-PV(Q+D)Z
    Role: ORBITAL
    Keyword: BASIS
    atoms 1, 4, 7, 10     entry C          line   333 file /opt/psi/4/master/share/psi4/basis/heavy-aug-cc-pv_qpd_z.gbs 
    atoms 2-3, 5-6, 8, 11 entry H          line    86 file /opt/psi/4/master/share/psi4/basis/heavy-aug-cc-pv_qpd_z.gbs 
    atoms 9, 12           entry O          line   453 file /opt/psi/4/master/share/psi4/basis/heavy-aug-cc-pv_qpd_z.gbs 


         ---------------------------------------------------------
                                   SCF
               by Justin Turney, Rob Parrish, Andy Simmonett
                          and Daniel G. A. Smith
                              RHF Reference
                        4 Threads,    500 MiB Core
         ---------------------------------------------------------

  ==> Geometry <==

    Molecular point group: c1
    Full point group: C1

    Geometry (in Angstrom), charge = 0, multiplicity = 1:

       Center              X                  Y                   Z               Mass       
    ------------   -----------------  -----------------  -----------------  -----------------
         C           -1.169969463277    -0.774075714550    -0.000125580240    12.000000000000
         H           -1.617202611977    -1.211544387650    -0.890367767540     1.007825032230
         H           -1.617274396477    -1.211731322050     0.889988080060     1.007825032230
         C           -1.170087777377     0.773896028650     0.000044791660    12.000000000000
         H           -1.617450892977     1.208854090095     0.890226335760     1.007825032230
         H           -1.617227751580     1.211815953325    -0.890128822806     1.007825032230
         C            0.356867514813     0.920198323601     0.000066590847    12.000000000000
         H            0.841413142297     1.891613346207     0.000132620716     1.007825032230
         O            0.760942746599     0.000127467803    -1.017879719759    15.994914619570
         C            0.356731773072    -0.919998207064    -0.000036144183    12.000000000000
         H            0.841134696347    -1.891484372982    -0.000075950048     1.007825032230
         O            0.760888359535     0.000013258525     1.017931696993    15.994914619570

  Running in c1 symmetry.

  Rotational constants: A =      0.20031  B =      0.16407  C =      0.14759 [cm^-1]
  Rotational constants: A =   6005.03873  B =   4918.84139  C =   4424.51930 [MHz]
  Nuclear repulsion =  258.071289853485496

  Charge       = 0
  Multiplicity = 1
  Electrons    = 46
  Nalpha       = 23
  Nbeta        = 23

  ==> Algorithm <==

  SCF Algorithm Type is DF.
  DIIS enabled.
  MOM disabled.
  Fractional occupation disabled.
  Guess Type is SAD.
  Energy threshold   = 1.00e-10
  Density threshold  = 1.00e-10
  Integral threshold = 0.00e+00

  ==> Primary Basis <==

  Basis Set: HEAVY-AUG-CC-PV(Q+D)Z
    Blend: HEAVY-AUG-CC-PV(Q+D)Z
    Number of shells: 180
    Number of basis function: 660
    Number of Cartesian functions: 840
    Spherical Harmonics?: true
    Max angular momentum: 4

   => Loading Basis Set <=

    Name: (HEAVY-AUG-CC-PV(Q+D)Z AUX)
    Role: JKFIT
    Keyword: DF_BASIS_SCF
    atoms 1, 4, 7, 10     entry C          line   214 file /opt/psi/4/master/share/psi4/basis/heavy-aug-cc-pvqz-jkfit.gbs 
    atoms 2-3, 5-6, 8, 11 entry H          line   116 file /opt/psi/4/master/share/psi4/basis/heavy-aug-cc-pvqz-jkfit.gbs 
    atoms 9, 12           entry O          line   354 file /opt/psi/4/master/share/psi4/basis/heavy-aug-cc-pvqz-jkfit.gbs 


  Computing basis projection from PCSEG-0 to HEAVY-AUG-CC-PV(Q+D)Z

  ==> Integral Setup <==

  ==> DiskDFJK: Density-Fitted J/K Matrices <==

    J tasked:                  Yes
    K tasked:                  Yes
    wK tasked:                  No
    OpenMP threads:              4
    Integrals threads:           4
    Memory [MiB]:              375
    Algorithm:                Disk
    Integral Cache:           NONE
    Schwarz Cutoff:          1E-12
    Fitting Condition:       1E-10

   => Auxiliary Basis Set <=

  Basis Set: (HEAVY-AUG-CC-PV(Q+D)Z AUX)
    Blend: HEAVY-AUG-CC-PVQZ-JKFIT
    Number of shells: 282
    Number of basis function: 1158
    Number of Cartesian functions: 1584
    Spherical Harmonics?: true
    Max angular momentum: 5

  Minimum eigenvalue in the overlap matrix is 1.0728988868E-06.
  Reciprocal condition number of the overlap matrix is 6.8681955070E-08.
    Using symmetric orthogonalization.

  ==> Pre-Iterations <==

  SCF Guess: Orbitals guess was supplied from a previous computation.

   -------------------------
    Irrep   Nso     Nmo    
   -------------------------
     A        660     660 
   -------------------------
    Total     660     660
   -------------------------

  ==> Iterations <==

                           Total Energy        Delta E     RMS |[F,P]|

   @DF-RHF iter   0:  -304.22024935235811   -3.04220e+02   4.49025e-03 
   @DF-RHF iter   1:  -304.73499069220213   -5.14741e-01   3.39668e-04 DIIS
   @DF-RHF iter   2:  -304.75114911792861   -1.61584e-02   1.55034e-04 DIIS
   @DF-RHF iter   3:  -304.75506990831781   -3.92079e-03   2.79042e-05 DIIS
   @DF-RHF iter   4:  -304.75534326963475   -2.73361e-04   7.95746e-06 DIIS
   @DF-RHF iter   5:  -304.75536448419831   -2.12146e-05   3.36846e-06 DIIS
   @DF-RHF iter   6:  -304.75536774250554   -3.25831e-06   8.32123e-07 DIIS
   @DF-RHF iter   7:  -304.75536802580325   -2.83298e-07   1.75392e-07 DIIS
   @DF-RHF iter   8:  -304.75536803963587   -1.38326e-08   4.58434e-08 DIIS
   @DF-RHF iter   9:  -304.75536804067360   -1.03773e-09   1.49181e-08 DIIS
   @DF-RHF iter  10:  -304.75536804076353   -8.99263e-11   3.66195e-09 DIIS
   @DF-RHF iter  11:  -304.75536804077160   -8.07177e-12   9.21384e-10 DIIS
   @DF-RHF iter  12:  -304.75536804077143    1.70530e-13   2.67912e-10 DIIS
   @DF-RHF iter  13:  -304.75536804077103    3.97904e-13   5.54995e-11 DIIS
  Energy and wave function converged.


  ==> Post-Iterations <==

    Orbital Energies [Eh]
    ---------------------

    Doubly Occupied:                                                      

       1A    -20.564294     2A    -20.564254     3A    -11.346890  
       4A    -11.346847     5A    -11.235070     6A    -11.234495  
       7A     -1.500698     8A     -1.296006     9A     -1.066694  
      10A     -0.989828    11A     -0.810496    12A     -0.787524  
      13A     -0.749038    14A     -0.676505    15A     -0.657269  
      16A     -0.645537    17A     -0.537645    18A     -0.525391  
      19A     -0.519348    20A     -0.511673    21A     -0.508828  
      22A     -0.460241    23A     -0.431562  

    Virtual:                                                              

      24A      0.041674    25A      0.042970    26A      0.050514  
      27A      0.062642    28A      0.063961    29A      0.079817  
      30A      0.080060    31A      0.083462    32A      0.101514  
      33A      0.110294    34A      0.111770    35A      0.112236  
      36A      0.139397    37A      0.151948    38A      0.166520  
      39A      0.171525    40A      0.178367    41A      0.178846  
      42A      0.188733    43A      0.188985    44A      0.199221  
      45A      0.207542    46A      0.226247    47A      0.227057  
      48A      0.230184    49A      0.258091    50A      0.261566  
      51A      0.270726    52A      0.271386    53A      0.272949  
      54A      0.287082    55A      0.288252    56A      0.291674  
      57A      0.301309    58A      0.316708    59A      0.319862  
      60A      0.325851    61A      0.333522    62A      0.338444  
      63A      0.356640    64A      0.358178    65A      0.370102  
      66A      0.381346    67A      0.388263    68A      0.390870  
      69A      0.391792    70A      0.392699    71A      0.399315  
      72A      0.399396    73A      0.413660    74A      0.420625  
      75A      0.421946    76A      0.440175    77A      0.452948  
      78A      0.457649    79A      0.465870    80A      0.495269  
      81A      0.517073    82A      0.518915    83A      0.523915  
      84A      0.528057    85A      0.550617    86A      0.572871  
      87A      0.575681    88A      0.586249    89A      0.590215  
      90A      0.598527    91A      0.600982    92A      0.614803  
      93A      0.629752    94A      0.642222    95A      0.656506  
      96A      0.659711    97A      0.686964    98A      0.690295  
      99A      0.697270   100A      0.704688   101A      0.716273  
     102A      0.721691   103A      0.735151   104A      0.745005  
     105A      0.759932   106A      0.766569   107A      0.790067  
     108A      0.791725   109A      0.794855   110A      0.796328  
     111A      0.828624   112A      0.832192   113A      0.833911  
     114A      0.850091   115A      0.860644   116A      0.876254  
     117A      0.885296   118A      0.898092   119A      0.920655  
     120A      0.939372   121A      0.948150   122A      0.960276  
     123A      0.960941   124A      0.987414   125A      1.002476  
     126A      1.010046   127A      1.012688   128A      1.017686  
     129A      1.034997   130A      1.035278   131A      1.047542  
     132A      1.060649   133A      1.071505   134A      1.074839  
     135A      1.097994   136A      1.114348   137A      1.129125  
     138A      1.140877   139A      1.154377   140A      1.160395  
     141A      1.160936   142A      1.166875   143A      1.167460  
     144A      1.177473   145A      1.190967   146A      1.198667  
     147A      1.209821   148A      1.222522   149A      1.231042  
     150A      1.235271   151A      1.238341   152A      1.240263  
     153A      1.246812   154A      1.276523   155A      1.278384  
     156A      1.289100   157A      1.289672   158A      1.306561  
     159A      1.315549   160A      1.329706   161A      1.371301  
     162A      1.373833   163A      1.410059   164A      1.410907  
     165A      1.436432   166A      1.442550   167A      1.459613  
     168A      1.469897   169A      1.477102   170A      1.487306  
     171A      1.490849   172A      1.510047   173A      1.525798  
     174A      1.534684   175A      1.545120   176A      1.594936  
     177A      1.595383   178A      1.620302   179A      1.622936  
     180A      1.626123   181A      1.626667   182A      1.646510  
     183A      1.684372   184A      1.686504   185A      1.701344  
     186A      1.723970   187A      1.727753   188A      1.734300  
     189A      1.754699   190A      1.777170   191A      1.779295  
     192A      1.814151   193A      1.867151   194A      1.875387  
     195A      1.887318   196A      1.898839   197A      1.909179  
     198A      1.928070   199A      1.960752   200A      1.968584  
     201A      1.999004   202A      2.000496   203A      2.017425  
     204A      2.022269   205A      2.026861   206A      2.029937  
     207A      2.034962   208A      2.039031   209A      2.045042  
     210A      2.106311   211A      2.115941   212A      2.126295  
     213A      2.142592   214A      2.145937   215A      2.173589  
     216A      2.189801   217A      2.190002   218A      2.212313  
     219A      2.255227   220A      2.261706   221A      2.270514  
     222A      2.296165   223A      2.301621   224A      2.309469  
     225A      2.339409   226A      2.342188   227A      2.362126  
     228A      2.364499   229A      2.366106   230A      2.377168  
     231A      2.390941   232A      2.400933   233A      2.407262  
     234A      2.423009   235A      2.442952   236A      2.448287  
     237A      2.460445   238A      2.487588   239A      2.492667  
     240A      2.518823   241A      2.527719   242A      2.536952  
     243A      2.547431   244A      2.561390   245A      2.590122  
     246A      2.594506   247A      2.622149   248A      2.634993  
     249A      2.635713   250A      2.648903   251A      2.666437  
     252A      2.683508   253A      2.701598   254A      2.719504  
     255A      2.734171   256A      2.735255   257A      2.753987  
     258A      2.766155   259A      2.766786   260A      2.802231  
     261A      2.807474   262A      2.807837   263A      2.835959  
     264A      2.862010   265A      2.870401   266A      2.923892  
     267A      2.941398   268A      2.945691   269A      2.970843  
     270A      2.977460   271A      2.988924   272A      2.992982  
     273A      3.010146   274A      3.033614   275A      3.043757  
     276A      3.051808   277A      3.078464   278A      3.083591  
     279A      3.084509   280A      3.106218   281A      3.111666  
     282A      3.137712   283A      3.148561   284A      3.156413  
     285A      3.175183   286A      3.189937   287A      3.229491  
     288A      3.249991   289A      3.260158   290A      3.270350  
     291A      3.291549   292A      3.297633   293A      3.322613  
     294A      3.364367   295A      3.368757   296A      3.400899  
     297A      3.403899   298A      3.406826   299A      3.434769  
     300A      3.457096   301A      3.465029   302A      3.480988  
     303A      3.503661   304A      3.523678   305A      3.537609  
     306A      3.554200   307A      3.574866   308A      3.599675  
     309A      3.614203   310A      3.619462   311A      3.641349  
     312A      3.664446   313A      3.694285   314A      3.706950  
     315A      3.716723   316A      3.748998   317A      3.754337  
     318A      3.757635   319A      3.810190   320A      3.836625  
     321A      3.846529   322A      3.847171   323A      3.877078  
     324A      3.908946   325A      3.910896   326A      3.921638  
     327A      3.951979   328A      3.965436   329A      3.984731  
     330A      4.043987   331A      4.048700   332A      4.051348  
     333A      4.063322   334A      4.085953   335A      4.101291  
     336A      4.121223   337A      4.139580   338A      4.158077  
     339A      4.172892   340A      4.204120   341A      4.206297  
     342A      4.219893   343A      4.243362   344A      4.249685  
     345A      4.276808   346A      4.296284   347A      4.317421  
     348A      4.336995   349A      4.340465   350A      4.365128  
     351A      4.408797   352A      4.435557   353A      4.446918  
     354A      4.458012   355A      4.470201   356A      4.490654  
     357A      4.500525   358A      4.513331   359A      4.525582  
     360A      4.542277   361A      4.571005   362A      4.598149  
     363A      4.637730   364A      4.662245   365A      4.676514  
     366A      4.698610   367A      4.699653   368A      4.708021  
     369A      4.719933   370A      4.747480   371A      4.758708  
     372A      4.764131   373A      4.788919   374A      4.831242  
     375A      4.835489   376A      4.835956   377A      4.849089  
     378A      4.860659   379A      4.913767   380A      4.944947  
     381A      4.988962   382A      5.007583   383A      5.011309  
     384A      5.035618   385A      5.062638   386A      5.124549  
     387A      5.172140   388A      5.175581   389A      5.186241  
     390A      5.245419   391A      5.255470   392A      5.258080  
     393A      5.285331   394A      5.295694   395A      5.311411  
     396A      5.348164   397A      5.368183   398A      5.391756  
     399A      5.424043   400A      5.503536   401A      5.525515  
     402A      5.555353   403A      5.596595   404A      5.637621  
     405A      5.660155   406A      5.661405   407A      5.677808  
     408A      5.794377   409A      5.837791   410A      5.838949  
     411A      5.844809   412A      5.909825   413A      5.977058  
     414A      6.039202   415A      6.108185   416A      6.148309  
     417A      6.191830   418A      6.220666   419A      6.234552  
     420A      6.242305   421A      6.296901   422A      6.340289  
     423A      6.344908   424A      6.348905   425A      6.372144  
     426A      6.399522   427A      6.422611   428A      6.464136  
     429A      6.490811   430A      6.497342   431A      6.514931  
     432A      6.526464   433A      6.539916   434A      6.583374  
     435A      6.586956   436A      6.619245   437A      6.642395  
     438A      6.648628   439A      6.655675   440A      6.690588  
     441A      6.702541   442A      6.705583   443A      6.717506  
     444A      6.755065   445A      6.774822   446A      6.786675  
     447A      6.815794   448A      6.821744   449A      6.856805  
     450A      6.896966   451A      6.909036   452A      6.920374  
     453A      6.923548   454A      6.924380   455A      6.947540  
     456A      6.980413   457A      6.995745   458A      7.015033  
     459A      7.040870   460A      7.095841   461A      7.107978  
     462A      7.111429   463A      7.138128   464A      7.160559  
     465A      7.181167   466A      7.195896   467A      7.208372  
     468A      7.223330   469A      7.225066   470A      7.255193  
     471A      7.280980   472A      7.312372   473A      7.361183  
     474A      7.369927   475A      7.372101   476A      7.421189  
     477A      7.440526   478A      7.442534   479A      7.477753  
     480A      7.541437   481A      7.546849   482A      7.602312  
     483A      7.605584   484A      7.618302   485A      7.642396  
     486A      7.722117   487A      7.733081   488A      7.751607  
     489A      7.757112   490A      7.785093   491A      7.818521  
     492A      7.841079   493A      7.849140   494A      7.861035  
     495A      7.925057   496A      7.951742   497A      7.954365  
     498A      7.989447   499A      7.999973   500A      8.023433  
     501A      8.026575   502A      8.049947   503A      8.094898  
     504A      8.117868   505A      8.154449   506A      8.158006  
     507A      8.198833   508A      8.207278   509A      8.329201  
     510A      8.337478   511A      8.342524   512A      8.356092  
     513A      8.389790   514A      8.422391   515A      8.426876  
     516A      8.485208   517A      8.508959   518A      8.511101  
     519A      8.530688   520A      8.556309   521A      8.568094  
     522A      8.595106   523A      8.611589   524A      8.617426  
     525A      8.656378   526A      8.697240   527A      8.712444  
     528A      8.721224   529A      8.766903   530A      8.816550  
     531A      8.831790   532A      8.840766   533A      8.843940  
     534A      8.847417   535A      8.891372   536A      8.902153  
     537A      8.929506   538A      8.942868   539A      8.958646  
     540A      9.010308   541A      9.017414   542A      9.029978  
     543A      9.038662   544A      9.048956   545A      9.067525  
     546A      9.086375   547A      9.111342   548A      9.119036  
     549A      9.173745   550A      9.180564   551A      9.191942  
     552A      9.237093   553A      9.252933   554A      9.314363  
     555A      9.345343   556A      9.353694   557A      9.357934  
     558A      9.368848   559A      9.400505   560A      9.453618  
     561A      9.503940   562A      9.515876   563A      9.529220  
     564A      9.557967   565A      9.652107   566A      9.661506  
     567A      9.728240   568A      9.761476   569A      9.774589  
     570A      9.798140   571A      9.835683   572A      9.898833  
     573A      9.925336   574A      9.933163   575A      9.962396  
     576A     10.071768   577A     10.115754   578A     10.234296  
     579A     10.243734   580A     10.257933   581A     10.294339  
     582A     10.419721   583A     10.480730   584A     10.503265  
     585A     10.516230   586A     10.589362   587A     10.627560  
     588A     10.648912   589A     10.783114   590A     10.792143  
     591A     10.822849   592A     10.827105   593A     10.970387  
     594A     11.005830   595A     11.059816   596A     11.084031  
     597A     11.097495   598A     11.107747   599A     11.146834  
     600A     11.152280   601A     11.177092   602A     11.220015  
     603A     11.235602   604A     11.258518   605A     11.351416  
     606A     11.387427   607A     11.457502   608A     11.465963  
     609A     11.512780   610A     11.514113   611A     11.526823  
     612A     11.557603   613A     11.635302   614A     11.657891  
     615A     11.744233   616A     11.829165   617A     11.848428  
     618A     11.884419   619A     11.908729   620A     11.927870  
     621A     12.220241   622A     12.278294   623A     12.317118  
     624A     12.400103   625A     12.664446   626A     12.677467  
     627A     12.822111   628A     12.908968   629A     12.949904  
     630A     13.058205   631A     13.097476   632A     13.114353  
     633A     13.196922   634A     13.237377   635A     13.267907  
     636A     13.357860   637A     13.389931   638A     13.401560  
     639A     13.426264   640A     13.532526   641A     13.535678  
     642A     13.555024   643A     13.742387   644A     13.751027  
     645A     13.819538   646A     13.820865   647A     13.867455  
     648A     13.932555   649A     14.007243   650A     14.018839  
     651A     14.164474   652A     14.172688   653A     14.730312  
     654A     14.927220   655A     27.317994   656A     27.905814  
     657A     28.052999   658A     28.607233   659A     44.849541  
     660A     45.764661  

    Final Occupation by Irrep:
              A 
    DOCC [    23 ]

  @DF-RHF Final Energy:  -304.75536804077103

   => Energetics <=

    Nuclear Repulsion Energy =            258.0712898534854958
    One-Electron Energy =                -927.7210493728096026
    Two-Electron Energy =                 364.8943914785530751
    Total Energy =                       -304.7553680407710317

Computation Completed


Properties will be evaluated at   0.000000,   0.000000,   0.000000 [a0]

Properties computed using the SCF density matrix

  Nuclear Dipole Moment: [e a0]
     X:    -4.4800      Y:    -0.0023      Z:    -0.0002

  Electronic Dipole Moment: [e a0]
     X:     3.7440      Y:     0.0024      Z:     0.0005

  Dipole Moment: [e a0]
     X:    -0.7360      Y:     0.0001      Z:     0.0002     Total:     0.7360

  Dipole Moment: [D]
     X:    -1.8707      Y:     0.0001      Z:     0.0006     Total:     1.8707


*** tstop() called on n067 at Fri Jun  5 11:41:16 2020
Module time:
	user time   =     150.03 seconds =       2.50 minutes
	system time =       6.34 seconds =       0.11 minutes
	total time  =         41 seconds =       0.68 minutes
Total time:
	user time   =     150.03 seconds =       2.50 minutes
	system time =       6.34 seconds =       0.11 minutes
	total time  =         41 seconds =       0.68 minutes

*** tstart() called on n067
*** at Fri Jun  5 11:41:16 2020


  //>>>>>>>>>>>>>>>>>>>>>>>>>>>>>>>>>>>//
  //               DFMP2               //
  //<<<<<<<<<<<<<<<<<<<<<<<<<<<<<<<<<<<//

   => Loading Basis Set <=

    Name: (HEAVY-AUG-CC-PV(Q+D)Z AUX)
    Role: RIFIT
    Keyword: DF_BASIS_MP2
    atoms 1, 4, 7, 10     entry C          line   180 file /opt/psi/4/master/share/psi4/basis/heavy-aug-cc-pvqz-ri.gbs 
    atoms 2-3, 5-6, 8, 11 entry H          line    44 file /opt/psi/4/master/share/psi4/basis/heavy-aug-cc-pvqz-ri.gbs 
    atoms 9, 12           entry O          line   328 file /opt/psi/4/master/share/psi4/basis/heavy-aug-cc-pvqz-ri.gbs 

	 --------------------------------------------------------
	                          DF-MP2                         
	      2nd-Order Density-Fitted Moller-Plesset Theory     
	              RMP2 Wavefunction,   4 Threads             
	                                                         
	        Rob Parrish, Justin Turney, Andy Simmonett,      
	           Ed Hohenstein, and C. David Sherrill          
	 --------------------------------------------------------

   => Auxiliary Basis Set <=

  Basis Set: (HEAVY-AUG-CC-PV(Q+D)Z AUX)
    Blend: HEAVY-AUG-CC-PVQZ-RI
    Number of shells: 306
    Number of basis function: 1338
    Number of Cartesian functions: 1842
    Spherical Harmonics?: true
    Max angular momentum: 5

	 --------------------------------------------------------
	                 NBF =   660, NAUX =  1338
	 --------------------------------------------------------
	   CLASS    FOCC     OCC    AOCC    AVIR     VIR    FVIR
	   PAIRS       6      23      17     637     637       0
	 --------------------------------------------------------

	-----------------------------------------------------------
	 ==================> DF-MP2 Energies <==================== 
	-----------------------------------------------------------
	 Reference Energy          =    -304.7553680407710317 [Eh]
	 Singles Energy            =      -0.0000000000000000 [Eh]
	 Same-Spin Energy          =      -0.2937697616065895 [Eh]
	 Opposite-Spin Energy      =      -0.9223731972303515 [Eh]
	 Correlation Energy        =      -1.2161429588369410 [Eh]
	 Total Energy              =    -305.9715109996079718 [Eh]
	-----------------------------------------------------------
	 ================> DF-SCS-MP2 Energies <================== 
	-----------------------------------------------------------
	 SCS Same-Spin Scale       =       0.3333333333333333 [-]
	 SCS Opposite-Spin Scale   =       1.2000000000000000 [-]
	 SCS Same-Spin Energy      =      -0.0979232538688632 [Eh]
	 SCS Opposite-Spin Energy  =      -1.1068478366764218 [Eh]
	 SCS Correlation Energy    =      -1.2047710905452851 [Eh]
	 SCS Total Energy          =    -305.9601391313163390 [Eh]
	-----------------------------------------------------------


*** tstop() called on n067 at Fri Jun  5 11:41:24 2020
Module time:
	user time   =      28.47 seconds =       0.47 minutes
	system time =       0.29 seconds =       0.00 minutes
	total time  =          8 seconds =       0.13 minutes
Total time:
	user time   =     178.51 seconds =       2.98 minutes
	system time =       6.63 seconds =       0.11 minutes
	total time  =         49 seconds =       0.82 minutes

========================OPTAVC-XTPL==========================

MP2/QZ correlation energy -1.216142958836941
SCF/QZ reference energy -304.75536804077103


=============================================================

Scratch directory: /tmp/

Scratch directory: /tmp/
    SCF Algorithm Type (re)set to DF.

*** tstart() called on n067
*** at Fri Jun  5 11:41:24 2020


  //>>>>>>>>>>>>>>>>>>>>>>>>>>>>>>>>>>>//
  //      Guess SCF, pcseg-0 Basis     //
  //<<<<<<<<<<<<<<<<<<<<<<<<<<<<<<<<<<<//

   => Loading Basis Set <=

    Name: PCSEG-0
    Role: ORBITAL
    Keyword: BASIS
    atoms 1, 4, 7, 10     entry C          line    71 file /opt/psi/4/master/share/psi4/basis/pcseg-0.gbs 
    atoms 2-3, 5-6, 8, 11 entry H          line    13 file /opt/psi/4/master/share/psi4/basis/pcseg-0.gbs 
    atoms 9, 12           entry O          line   103 file /opt/psi/4/master/share/psi4/basis/pcseg-0.gbs 


         ---------------------------------------------------------
                           SCF Castup computation                  
         ---------------------------------------------------------
                                   SCF
               by Justin Turney, Rob Parrish, Andy Simmonett
                          and Daniel G. A. Smith
                              RHF Reference
                        4 Threads,    500 MiB Core
         ---------------------------------------------------------

  ==> Geometry <==

    Molecular point group: c1
    Full point group: C1

    Geometry (in Angstrom), charge = 0, multiplicity = 1:

       Center              X                  Y                   Z               Mass       
    ------------   -----------------  -----------------  -----------------  -----------------
         C           -1.169969463277    -0.774075714550    -0.000125580240    12.000000000000
         H           -1.617202611977    -1.211544387650    -0.890367767540     1.007825032230
         H           -1.617274396477    -1.211731322050     0.889988080060     1.007825032230
         C           -1.170087777377     0.773896028650     0.000044791660    12.000000000000
         H           -1.617450892977     1.208854090095     0.890226335760     1.007825032230
         H           -1.617227751580     1.211815953325    -0.890128822806     1.007825032230
         C            0.356867514813     0.920198323601     0.000066590847    12.000000000000
         H            0.841413142297     1.891613346207     0.000132620716     1.007825032230
         O            0.760942746599     0.000127467803    -1.017879719759    15.994914619570
         C            0.356731773072    -0.919998207064    -0.000036144183    12.000000000000
         H            0.841134696347    -1.891484372982    -0.000075950048     1.007825032230
         O            0.760888359535     0.000013258525     1.017931696993    15.994914619570

  Running in c1 symmetry.

  Rotational constants: A =      0.20031  B =      0.16407  C =      0.14759 [cm^-1]
  Rotational constants: A =   6005.03873  B =   4918.84139  C =   4424.51930 [MHz]
  Nuclear repulsion =  258.071289853485496

  Charge       = 0
  Multiplicity = 1
  Electrons    = 46
  Nalpha       = 23
  Nbeta        = 23

  ==> Algorithm <==

  SCF Algorithm Type is DF.
  DIIS enabled.
  MOM disabled.
  Fractional occupation disabled.
  Guess Type is SAD.
  Energy threshold   = 1.00e-10
  Density threshold  = 1.00e-10
  Integral threshold = 0.00e+00

  ==> Primary Basis <==

  Basis Set: PCSEG-0
    Blend: PCSEG-0
    Number of shells: 42
    Number of basis function: 66
    Number of Cartesian functions: 66
    Spherical Harmonics?: true
    Max angular momentum: 1

   => Loading Basis Set <=

    Name: (PCSEG-0 AUX)
    Role: JKFIT
    Keyword: DF_BASIS_SCF
    atoms 1, 4, 7, 10     entry C          line   198 file /opt/psi/4/master/share/psi4/basis/def2-universal-jkfit.gbs 
    atoms 2-3, 5-6, 8, 11 entry H          line    18 file /opt/psi/4/master/share/psi4/basis/def2-universal-jkfit.gbs 
    atoms 9, 12           entry O          line   318 file /opt/psi/4/master/share/psi4/basis/def2-universal-jkfit.gbs 

  ==> Integral Setup <==

  ==> DiskDFJK: Density-Fitted J/K Matrices <==

    J tasked:                  Yes
    K tasked:                  Yes
    wK tasked:                  No
    OpenMP threads:              4
    Integrals threads:           4
    Memory [MiB]:              375
    Algorithm:                Core
    Integral Cache:           NONE
    Schwarz Cutoff:          1E-12
    Fitting Condition:       1E-10

   => Auxiliary Basis Set <=

  Basis Set: (PCSEG-0 AUX)
    Blend: DEF2-UNIVERSAL-JKFIT
    Number of shells: 186
    Number of basis function: 562
    Number of Cartesian functions: 662
    Spherical Harmonics?: true
    Max angular momentum: 4

  Minimum eigenvalue in the overlap matrix is 1.2750523488E-03.
  Reciprocal condition number of the overlap matrix is 2.0988168082E-04.
    Using symmetric orthogonalization.

  ==> Pre-Iterations <==

  SCF Guess: Superposition of Atomic Densities via on-the-fly atomic UHF (no occupation information).

   -------------------------
    Irrep   Nso     Nmo    
   -------------------------
     A         66      66 
   -------------------------
    Total      66      66
   -------------------------

  ==> Iterations <==

                           Total Energy        Delta E     RMS |[F,P]|

   @DF-RHF iter SAD:  -303.78397362463295   -3.03784e+02   0.00000e+00 
   @DF-RHF iter   1:  -303.56518673084895    2.18787e-01   7.20985e-03 DIIS
   @DF-RHF iter   2:  -303.66410146754822   -9.89147e-02   3.86647e-03 DIIS
   @DF-RHF iter   3:  -303.68844912079925   -2.43477e-02   6.09832e-04 DIIS
   @DF-RHF iter   4:  -303.68958906527894   -1.13994e-03   1.89683e-04 DIIS
   @DF-RHF iter   5:  -303.68967747718233   -8.84119e-05   4.01129e-05 DIIS
   @DF-RHF iter   6:  -303.68968459625330   -7.11907e-06   8.09004e-06 DIIS
   @DF-RHF iter   7:  -303.68968496787426   -3.71621e-07   1.66998e-06 DIIS
   @DF-RHF iter   8:  -303.68968498095433   -1.30801e-08   5.23251e-07 DIIS
   @DF-RHF iter   9:  -303.68968498228639   -1.33207e-09   1.00048e-07 DIIS
   @DF-RHF iter  10:  -303.68968498234977   -6.33804e-11   1.69263e-08 DIIS
   @DF-RHF iter  11:  -303.68968498235097   -1.19371e-12   2.62724e-09 DIIS
   @DF-RHF iter  12:  -303.68968498235142   -4.54747e-13   8.94440e-10 DIIS
   @DF-RHF iter  13:  -303.68968498235097    4.54747e-13   2.64182e-10 DIIS
   @DF-RHF iter  14:  -303.68968498235142   -4.54747e-13   5.31195e-11 DIIS
  Energy and wave function converged.


  ==> Post-Iterations <==

    Orbital Energies [Eh]
    ---------------------

    Doubly Occupied:                                                      

       1A    -20.583848     2A    -20.583780     3A    -11.368405  
       4A    -11.368374     5A    -11.254670     6A    -11.254262  
       7A     -1.548732     8A     -1.317315     9A     -1.091277  
      10A     -1.011022    11A     -0.822298    12A     -0.788009  
      13A     -0.770571    14A     -0.684686    15A     -0.664458  
      16A     -0.661838    17A     -0.555066    18A     -0.534418  
      19A     -0.528210    20A     -0.525281    21A     -0.518404  
      22A     -0.467599    23A     -0.441365  

    Virtual:                                                              

      24A      0.203695    25A      0.232865    26A      0.236736  
      27A      0.242109    28A      0.254676    29A      0.267711  
      30A      0.316104    31A      0.351972    32A      0.354543  
      33A      0.388115    34A      0.408853    35A      0.474141  
      36A      0.575717    37A      0.796055    38A      0.799757  
      39A      0.821423    40A      0.924757    41A      0.933969  
      42A      0.944557    43A      0.951819    44A      1.004463  
      45A      1.005540    46A      1.033547    47A      1.061476  
      48A      1.071807    49A      1.136333    50A      1.149715  
      51A      1.171700    52A      1.173074    53A      1.210683  
      54A      1.239298    55A      1.422054    56A      1.454527  
      57A      1.484916    58A      1.525906    59A      1.692561  
      60A      1.710137    61A      1.929934    62A      1.952654  
      63A      2.144802    64A      2.303193    65A      2.379090  
      66A      2.449470  

    Final Occupation by Irrep:
              A 
    DOCC [    23 ]

  @DF-RHF Final Energy:  -303.68968498235142

   => Energetics <=

    Nuclear Repulsion Energy =            258.0712898534854958
    One-Electron Energy =                -924.8341709207077201
    Two-Electron Energy =                 363.0731960848708013
    Total Energy =                       -303.6896849823514231

Computation Completed

  //>>>>>>>>>>>>>>>>>>>>>>>>>>>>>>>>>>>//
  //                SCF                //
  //<<<<<<<<<<<<<<<<<<<<<<<<<<<<<<<<<<<//

   => Loading Basis Set <=

    Name: HEAVY-AUG-CC-PV(T+D)Z
    Role: ORBITAL
    Keyword: BASIS
    atoms 1, 4, 7, 10     entry C          line   273 file /opt/psi/4/master/share/psi4/basis/heavy-aug-cc-pv_tpd_z.gbs 
    atoms 2-3, 5-6, 8, 11 entry H          line    86 file /opt/psi/4/master/share/psi4/basis/heavy-aug-cc-pv_tpd_z.gbs 
    atoms 9, 12           entry O          line   365 file /opt/psi/4/master/share/psi4/basis/heavy-aug-cc-pv_tpd_z.gbs 


         ---------------------------------------------------------
                                   SCF
               by Justin Turney, Rob Parrish, Andy Simmonett
                          and Daniel G. A. Smith
                              RHF Reference
                        4 Threads,    500 MiB Core
         ---------------------------------------------------------

  ==> Geometry <==

    Molecular point group: c1
    Full point group: C1

    Geometry (in Angstrom), charge = 0, multiplicity = 1:

       Center              X                  Y                   Z               Mass       
    ------------   -----------------  -----------------  -----------------  -----------------
         C           -1.169969463277    -0.774075714550    -0.000125580240    12.000000000000
         H           -1.617202611977    -1.211544387650    -0.890367767540     1.007825032230
         H           -1.617274396477    -1.211731322050     0.889988080060     1.007825032230
         C           -1.170087777377     0.773896028650     0.000044791660    12.000000000000
         H           -1.617450892977     1.208854090095     0.890226335760     1.007825032230
         H           -1.617227751580     1.211815953325    -0.890128822806     1.007825032230
         C            0.356867514813     0.920198323601     0.000066590847    12.000000000000
         H            0.841413142297     1.891613346207     0.000132620716     1.007825032230
         O            0.760942746599     0.000127467803    -1.017879719759    15.994914619570
         C            0.356731773072    -0.919998207064    -0.000036144183    12.000000000000
         H            0.841134696347    -1.891484372982    -0.000075950048     1.007825032230
         O            0.760888359535     0.000013258525     1.017931696993    15.994914619570

  Running in c1 symmetry.

  Rotational constants: A =      0.20031  B =      0.16407  C =      0.14759 [cm^-1]
  Rotational constants: A =   6005.03873  B =   4918.84139  C =   4424.51930 [MHz]
  Nuclear repulsion =  258.071289853485496

  Charge       = 0
  Multiplicity = 1
  Electrons    = 46
  Nalpha       = 23
  Nbeta        = 23

  ==> Algorithm <==

  SCF Algorithm Type is DF.
  DIIS enabled.
  MOM disabled.
  Fractional occupation disabled.
  Guess Type is SAD.
  Energy threshold   = 1.00e-10
  Density threshold  = 1.00e-10
  Integral threshold = 0.00e+00

  ==> Primary Basis <==

  Basis Set: HEAVY-AUG-CC-PV(T+D)Z
    Blend: HEAVY-AUG-CC-PV(T+D)Z
    Number of shells: 120
    Number of basis function: 360
    Number of Cartesian functions: 420
    Spherical Harmonics?: true
    Max angular momentum: 3

   => Loading Basis Set <=

    Name: (HEAVY-AUG-CC-PV(T+D)Z AUX)
    Role: JKFIT
    Keyword: DF_BASIS_SCF
    atoms 1, 4, 7, 10     entry C          line   200 file /opt/psi/4/master/share/psi4/basis/heavy-aug-cc-pvtz-jkfit.gbs 
    atoms 2-3, 5-6, 8, 11 entry H          line   116 file /opt/psi/4/master/share/psi4/basis/heavy-aug-cc-pvtz-jkfit.gbs 
    atoms 9, 12           entry O          line   324 file /opt/psi/4/master/share/psi4/basis/heavy-aug-cc-pvtz-jkfit.gbs 


  Computing basis projection from PCSEG-0 to HEAVY-AUG-CC-PV(T+D)Z

  ==> Integral Setup <==

  ==> DiskDFJK: Density-Fitted J/K Matrices <==

    J tasked:                  Yes
    K tasked:                  Yes
    wK tasked:                  No
    OpenMP threads:              4
    Integrals threads:           4
    Memory [MiB]:              375
    Algorithm:                Disk
    Integral Cache:           NONE
    Schwarz Cutoff:          1E-12
    Fitting Condition:       1E-10

   => Auxiliary Basis Set <=

  Basis Set: (HEAVY-AUG-CC-PV(T+D)Z AUX)
    Blend: HEAVY-AUG-CC-PVTZ-JKFIT
    Number of shells: 240
    Number of basis function: 804
    Number of Cartesian functions: 996
    Spherical Harmonics?: true
    Max angular momentum: 4

  Minimum eigenvalue in the overlap matrix is 5.4636340751E-06.
  Reciprocal condition number of the overlap matrix is 3.9868755249E-07.
    Using symmetric orthogonalization.

  ==> Pre-Iterations <==

  SCF Guess: Orbitals guess was supplied from a previous computation.

   -------------------------
    Irrep   Nso     Nmo    
   -------------------------
     A        360     360 
   -------------------------
    Total     360     360
   -------------------------

  ==> Iterations <==

                           Total Energy        Delta E     RMS |[F,P]|

   @DF-RHF iter   0:  -304.36014553680991   -3.04360e+02   4.19542e-03 
   @DF-RHF iter   1:  -304.71757888614326   -3.57433e-01   5.78110e-04 DIIS
   @DF-RHF iter   2:  -304.73286758489911   -1.52887e-02   2.73858e-04 DIIS
   @DF-RHF iter   3:  -304.73659809954887   -3.73051e-03   4.82228e-05 DIIS
   @DF-RHF iter   4:  -304.73685823107485   -2.60132e-04   1.47371e-05 DIIS
   @DF-RHF iter   5:  -304.73687793465245   -1.97036e-05   6.03062e-06 DIIS
   @DF-RHF iter   6:  -304.73688136944679   -3.43479e-06   1.40514e-06 DIIS
   @DF-RHF iter   7:  -304.73688161458722   -2.45140e-07   3.05120e-07 DIIS
   @DF-RHF iter   8:  -304.73688162762983   -1.30426e-08   8.04026e-08 DIIS
   @DF-RHF iter   9:  -304.73688162853273   -9.02901e-10   2.56542e-08 DIIS
   @DF-RHF iter  10:  -304.73688162861833   -8.56062e-11   6.19715e-09 DIIS
   @DF-RHF iter  11:  -304.73688162862470   -6.36646e-12   1.58621e-09 DIIS
   @DF-RHF iter  12:  -304.73688162862487   -1.70530e-13   4.56520e-10 DIIS
   @DF-RHF iter  13:  -304.73688162862402    8.52651e-13   9.78023e-11 DIIS
  Energy and wave function converged.


  ==> Post-Iterations <==

    Orbital Energies [Eh]
    ---------------------

    Doubly Occupied:                                                      

       1A    -20.567250     2A    -20.567211     3A    -11.348000  
       4A    -11.347958     5A    -11.236149     6A    -11.235576  
       7A     -1.501513     8A     -1.296806     9A     -1.066941  
      10A     -0.990112    11A     -0.810590    12A     -0.787680  
      13A     -0.748997    14A     -0.676405    15A     -0.657294  
      16A     -0.645388    17A     -0.537573    18A     -0.525237  
      19A     -0.519215    20A     -0.511596    21A     -0.508627  
      22A     -0.459977    23A     -0.431362  

    Virtual:                                                              

      24A      0.050448    25A      0.051300    26A      0.059468  
      27A      0.072114    28A      0.073461    29A      0.092419  
      30A      0.093434    31A      0.096770    32A      0.116629  
      33A      0.126407    34A      0.127464    35A      0.130114  
      36A      0.162133    37A      0.176387    38A      0.195502  
      39A      0.204211    40A      0.206628    41A      0.214142  
      42A      0.220952    43A      0.228188    44A      0.233690  
      45A      0.249481    46A      0.268184    47A      0.268942  
      48A      0.276979    49A      0.295946    50A      0.302225  
      51A      0.315582    52A      0.332116    53A      0.336064  
      54A      0.342735    55A      0.348395    56A      0.356988  
      57A      0.357238    58A      0.362778    59A      0.376044  
      60A      0.398590    61A      0.404069    62A      0.412786  
      63A      0.421499    64A      0.433696    65A      0.447036  
      66A      0.459435    67A      0.469181    68A      0.486593  
      69A      0.493136    70A      0.508567    71A      0.512552  
      72A      0.516721    73A      0.520744    74A      0.527726  
      75A      0.529252    76A      0.543526    77A      0.546062  
      78A      0.580573    79A      0.595838    80A      0.608238  
      81A      0.612102    82A      0.624821    83A      0.654887  
      84A      0.657303    85A      0.672093    86A      0.722714  
      87A      0.737462    88A      0.748485    89A      0.754189  
      90A      0.771624    91A      0.781614    92A      0.793712  
      93A      0.798288    94A      0.817391    95A      0.820104  
      96A      0.830138    97A      0.843426    98A      0.878388  
      99A      0.892172   100A      0.930728   101A      0.930916  
     102A      0.940208   103A      0.946361   104A      0.969925  
     105A      0.988468   106A      1.000206   107A      1.031658  
     108A      1.037882   109A      1.039128   110A      1.061935  
     111A      1.080489   112A      1.096444   113A      1.115961  
     114A      1.123213   115A      1.139023   116A      1.161582  
     117A      1.189213   118A      1.225344   119A      1.249066  
     120A      1.252473   121A      1.262824   122A      1.283231  
     123A      1.323027   124A      1.330802   125A      1.339088  
     126A      1.353468   127A      1.375083   128A      1.382749  
     129A      1.398484   130A      1.404192   131A      1.412787  
     132A      1.448309   133A      1.448555   134A      1.460326  
     135A      1.482079   136A      1.498097   137A      1.506645  
     138A      1.527439   139A      1.547156   140A      1.559648  
     141A      1.583294   142A      1.586136   143A      1.589004  
     144A      1.589976   145A      1.601682   146A      1.656075  
     147A      1.660737   148A      1.670556   149A      1.676487  
     150A      1.684941   151A      1.700133   152A      1.708024  
     153A      1.715651   154A      1.732078   155A      1.736722  
     156A      1.750104   157A      1.752725   158A      1.791944  
     159A      1.802748   160A      1.808649   161A      1.824236  
     162A      1.903827   163A      1.905584   164A      1.931551  
     165A      1.945128   166A      1.948944   167A      1.985463  
     168A      1.993735   169A      2.003836   170A      2.007390  
     171A      2.028420   172A      2.051174   173A      2.055119  
     174A      2.060796   175A      2.150930   176A      2.153458  
     177A      2.214147   178A      2.251777   179A      2.301680  
     180A      2.334378   181A      2.393159   182A      2.403016  
     183A      2.424072   184A      2.441714   185A      2.452666  
     186A      2.480792   187A      2.508454   188A      2.511694  
     189A      2.544983   190A      2.582216   191A      2.631978  
     192A      2.647142   193A      2.682335   194A      2.693495  
     195A      2.725289   196A      2.771080   197A      2.799408  
     198A      2.882287   199A      2.882972   200A      2.895322  
     201A      2.914386   202A      2.920845   203A      2.958406  
     204A      2.966094   205A      2.969600   206A      3.081382  
     207A      3.099694   208A      3.119425   209A      3.132151  
     210A      3.185639   211A      3.188751   212A      3.211963  
     213A      3.227528   214A      3.243570   215A      3.267084  
     216A      3.312167   217A      3.339176   218A      3.412651  
     219A      3.416091   220A      3.418026   221A      3.440060  
     222A      3.442733   223A      3.480600   224A      3.486501  
     225A      3.504121   226A      3.524096   227A      3.539326  
     228A      3.607315   229A      3.629325   230A      3.639701  
     231A      3.671134   232A      3.686004   233A      3.700581  
     234A      3.710750   235A      3.730000   236A      3.735999  
     237A      3.752233   238A      3.821098   239A      3.837505  
     240A      3.844555   241A      3.867598   242A      3.885613  
     243A      3.933580   244A      3.949824   245A      3.966217  
     246A      3.966480   247A      3.969897   248A      4.005076  
     249A      4.025484   250A      4.049942   251A      4.056446  
     252A      4.080434   253A      4.108038   254A      4.114400  
     255A      4.148545   256A      4.168076   257A      4.176303  
     258A      4.185388   259A      4.191731   260A      4.214780  
     261A      4.244639   262A      4.253309   263A      4.260126  
     264A      4.268748   265A      4.274082   266A      4.318416  
     267A      4.345961   268A      4.367030   269A      4.429821  
     270A      4.467154   271A      4.484744   272A      4.486293  
     273A      4.500052   274A      4.516354   275A      4.532225  
     276A      4.555085   277A      4.584779   278A      4.639558  
     279A      4.691252   280A      4.694156   281A      4.703828  
     282A      4.708497   283A      4.735180   284A      4.745228  
     285A      4.758807   286A      4.809080   287A      4.821194  
     288A      4.821816   289A      4.840779   290A      4.889198  
     291A      4.908352   292A      4.959384   293A      4.966360  
     294A      4.968435   295A      5.097591   296A      5.120158  
     297A      5.125557   298A      5.194362   299A      5.200287  
     300A      5.241433   301A      5.273695   302A      5.290212  
     303A      5.398326   304A      5.424744   305A      5.437297  
     306A      5.467091   307A      5.477116   308A      5.584344  
     309A      5.584872   310A      5.606835   311A      5.655955  
     312A      5.704862   313A      5.711384   314A      5.730568  
     315A      5.861540   316A      5.867947   317A      5.900755  
     318A      5.937835   319A      6.061722   320A      6.130236  
     321A      6.153232   322A      6.207869   323A      6.262074  
     324A      6.289077   325A      6.301775   326A      6.361177  
     327A      6.385856   328A      6.498066   329A      6.563530  
     330A      6.901464   331A      6.906151   332A      6.955174  
     333A      6.970930   334A      6.997722   335A      7.032947  
     336A      7.111295   337A      7.141337   338A      7.179659  
     339A      7.207006   340A      7.245678   341A      7.254742  
     342A      7.404407   343A      7.507587   344A      7.599752  
     345A      7.615138   346A      7.659984   347A      7.755726  
     348A      7.811156   349A      7.825168   350A      7.924553  
     351A      8.059699   352A      8.210667   353A      8.213627  
     354A      8.233735   355A     14.278873   356A     15.471614  
     357A     15.713001   358A     15.957263   359A     17.527205  
     360A     18.823167  

    Final Occupation by Irrep:
              A 
    DOCC [    23 ]

  @DF-RHF Final Energy:  -304.73688162862402

   => Energetics <=

    Nuclear Repulsion Energy =            258.0712898534854958
    One-Electron Energy =                -927.6614247584650457
    Two-Electron Energy =                 364.8532532763555309
    Total Energy =                       -304.7368816286240190

Computation Completed


Properties will be evaluated at   0.000000,   0.000000,   0.000000 [a0]

Properties computed using the SCF density matrix

  Nuclear Dipole Moment: [e a0]
     X:    -4.4800      Y:    -0.0023      Z:    -0.0002

  Electronic Dipole Moment: [e a0]
     X:     3.7436      Y:     0.0024      Z:     0.0005

  Dipole Moment: [e a0]
     X:    -0.7364      Y:     0.0001      Z:     0.0002     Total:     0.7364

  Dipole Moment: [D]
     X:    -1.8718      Y:     0.0001      Z:     0.0006     Total:     1.8718


*** tstop() called on n067 at Fri Jun  5 11:41:34 2020
Module time:
	user time   =      34.14 seconds =       0.57 minutes
	system time =       1.68 seconds =       0.03 minutes
	total time  =         10 seconds =       0.17 minutes
Total time:
	user time   =     213.14 seconds =       3.55 minutes
	system time =       8.49 seconds =       0.14 minutes
	total time  =         59 seconds =       0.98 minutes

*** tstart() called on n067
*** at Fri Jun  5 11:41:34 2020


  //>>>>>>>>>>>>>>>>>>>>>>>>>>>>>>>>>>>//
  //               DFMP2               //
  //<<<<<<<<<<<<<<<<<<<<<<<<<<<<<<<<<<<//

   => Loading Basis Set <=

    Name: (HEAVY-AUG-CC-PV(T+D)Z AUX)
    Role: RIFIT
    Keyword: DF_BASIS_MP2
    atoms 1, 4, 7, 10     entry C          line   148 file /opt/psi/4/master/share/psi4/basis/heavy-aug-cc-pvtz-ri.gbs 
    atoms 2-3, 5-6, 8, 11 entry H          line    44 file /opt/psi/4/master/share/psi4/basis/heavy-aug-cc-pvtz-ri.gbs 
    atoms 9, 12           entry O          line   264 file /opt/psi/4/master/share/psi4/basis/heavy-aug-cc-pvtz-ri.gbs 

	 --------------------------------------------------------
	                          DF-MP2                         
	      2nd-Order Density-Fitted Moller-Plesset Theory     
	              RMP2 Wavefunction,   4 Threads             
	                                                         
	        Rob Parrish, Justin Turney, Andy Simmonett,      
	           Ed Hohenstein, and C. David Sherrill          
	 --------------------------------------------------------

   => Auxiliary Basis Set <=

  Basis Set: (HEAVY-AUG-CC-PV(T+D)Z AUX)
    Blend: HEAVY-AUG-CC-PVTZ-RI
    Number of shells: 228
    Number of basis function: 816
    Number of Cartesian functions: 1026
    Spherical Harmonics?: true
    Max angular momentum: 4

	 --------------------------------------------------------
	                 NBF =   360, NAUX =   816
	 --------------------------------------------------------
	   CLASS    FOCC     OCC    AOCC    AVIR     VIR    FVIR
	   PAIRS       6      23      17     337     337       0
	 --------------------------------------------------------

	-----------------------------------------------------------
	 ==================> DF-MP2 Energies <==================== 
	-----------------------------------------------------------
	 Reference Energy          =    -304.7368816286240190 [Eh]
	 Singles Energy            =      -0.0000000000000000 [Eh]
	 Same-Spin Energy          =      -0.2850938479383732 [Eh]
	 Opposite-Spin Energy      =      -0.8617591515889584 [Eh]
	 Correlation Energy        =      -1.1468529995273316 [Eh]
	 Total Energy              =    -305.8837346281513305 [Eh]
	-----------------------------------------------------------
	 ================> DF-SCS-MP2 Energies <================== 
	-----------------------------------------------------------
	 SCS Same-Spin Scale       =       0.3333333333333333 [-]
	 SCS Opposite-Spin Scale   =       1.2000000000000000 [-]
	 SCS Same-Spin Energy      =      -0.0950312826461244 [Eh]
	 SCS Opposite-Spin Energy  =      -1.0341109819067500 [Eh]
	 SCS Correlation Energy    =      -1.1291422645528744 [Eh]
	 SCS Total Energy          =    -305.8660238931768731 [Eh]
	-----------------------------------------------------------


*** tstop() called on n067 at Fri Jun  5 11:41:36 2020
Module time:
	user time   =       6.84 seconds =       0.11 minutes
	system time =       0.12 seconds =       0.00 minutes
	total time  =          2 seconds =       0.03 minutes
Total time:
	user time   =     219.98 seconds =       3.67 minutes
	system time =       8.61 seconds =       0.14 minutes
	total time  =         61 seconds =       1.02 minutes

========================OPTAVC-XTPL==========================

MP2/TZ correlation energy -1.1468529995273316

=============================================================

    Psi4 stopped on: Friday, 05 June 2020 11:41AM
    Psi4 wall time for execution: 0:01:00.14

*** Psi4 exiting successfully. Buy a developer a beer!
