
 Primary working directories    : /tmp/320938.924.gen4.q
 Secondary working directories  : /tmp/320938.924.gen4.q
 Wavefunction directory         : /home/vulcan/mel64643/wfu/
 Main file repository           : /tmp/320938.924.gen4.q/

 ARCHNAME  : Linux/x86_64
 FC        : /opt/intel/compilers_and_libraries_2016.1.150/linux/bin/intel64/ifort
 FCVERSION : 16.0.1
 BLASLIB   : -mkl
 id        : ccgc

 Nodes     nprocs
 n063         3
 Number of processes for MPI-2 version of Molpro:   nprocs(total)=    4   nprocs(compute)=    3   nprocs(helper)=    1
 ga_uses_ma=false, calling ma_init with nominal heap.
 GA-space will be limited to   8.0 MW (determined by -G option)

 Using customized tuning parameters: mindgm=10; mindgv=16; mindgc=4; mindgr=1; noblas=0; mincuda=1000; minvec=7
 default implementation of scratch files=sf  

 ***,Frequencies for min3
 memory,1000,m
 gthresh,energy=1.0d-10,orbital=1.0d-10,oneint=1.0d-16,twoint=1.0d-16,optgrad=1.0d-6,compress=1.0d-13
 geomtyp=xyz
 
  geometry = {
  12
  arbitrary comment
     C    1.776964391707    0.711398808326   -0.047331391796
     C    0.491811976407   -0.059338630746   -0.196506267364
     C    0.450236071263   -1.535907302524    0.101478126435
     O   -0.560645197477    0.726870507931    0.254414188587
     O   -1.837848041491    0.092140778234   -0.120527879075
     H    2.585384222224    0.210432343175   -0.611486806654
     H    1.660744540881    1.742047741121   -0.426643807334
     H    2.095262957467    0.773191699121    1.017581911588
     H   -0.505293548877   -1.983174908946   -0.219992074903
     H    1.281456873023   -2.047969101296   -0.417080925036
     H    0.561428808903   -1.719711326005    1.194812472450
     H   -1.987970912929    0.550696399217   -0.967013093267
  }
 
 basis=cc-pvdz
 {rhf;maxit,200}
 {uccsd(t);maxit,200}

 Variables initialized (661), CPU time= 0.00 sec
 Commands  initialized (458), CPU time= 0.01 sec, 486 directives.
 Default parameters read. Elapsed time= 0.06 sec

 Checking input...
 Passed
1


                                         ***  PROGRAM SYSTEM MOLPRO  ***
                         Copyright, University College Cardiff Consultants Limited, 2008

                                    Version 2010.1 linked May 16 2016 07:17:05


 **********************************************************************************************************************************
 LABEL *   Frequencies for min3                                                          
 Linux-4.4.3/n063(x86_64) 64 bit mpp version                                             DATE: 07-Mar-20          TIME: 06:24:50  
 **********************************************************************************************************************************

 SHA1:             9e8077add272b0f3cad6f7df79ec5211205f459d
 **********************************************************************************************************************************

 THRESHOLDS:

 ZERO    =  1.00D-12  ONEINT  =  1.00D-16  TWOINT  =  1.00D-16  PREFAC  =  1.00D-14  LOCALI  =  1.00D-09  EORDER  =  1.00D-04
 ENERGY  =  1.00D-10  ETEST   =  0.00D+00  EDENS   =  0.00D+00  THRDEDEF=  1.00D-06  GRADIENT=  1.00D-02  STEP    =  1.00D-03
 ORBITAL =  1.00D-10  CIVEC   =  1.00D-05  COEFF   =  1.00D-04  PRINTCI =  5.00D-02  PUNCHCI =  9.90D+01  OPTGRAD =  1.00D-06
 OPTENERG=  1.00D-06  OPTSTEP =  3.00D-04  THRGRAD =  1.00D-10  COMPRESS=  1.00D-13  VARMIN  =  1.00D-07  VARMAX  =  1.00D-03
 THRDOUB =  0.00D+00  THRDIV  =  1.00D-05  THRRED  =  1.00D-07  THRPSP  =  1.00D+00  THRDC   =  1.00D-10  THRCS   =  1.00D-10
 THRNRM  =  1.00D-08  THREQ   =  0.00D+00  THRDE   =  1.00D+00  THRREF  =  1.00D-05  SPARFAC =  1.00D+00  THRDLP  =  1.00D-07
 THRDIA  =  1.00D-10  THRDLS  =  1.00D-07  THRGPS  =  0.00D+00  THRKEX  =  0.00D+00  THRDIS  =  2.00D-01  THRVAR  =  1.00D-10
 THRLOC  =  1.00D-06  THRGAP  =  1.00D-06  THRLOCT = -1.00D+00  THRGAPT = -1.00D+00  THRORB  =  1.00D-06  THRMLTP =  0.00D+00
 THRCPQCI=  1.00D-10  KEXTA   =  0.00D+00  THRCOARS=  0.00D+00  SYMTOL  =  1.00D-06  GRADTOL =  1.00D-06  THROVL  =  1.00D-08
 THRORTH =  1.00D-08  GRID    =  1.00D-06  GRIDMAX =  1.00D-03  DTMAX   =  0.00D+00

 SETTING GEOMTYP        =    XYZ

 Variable memory set to 1000000000 words,  buffer space   230000 words

 SETTING BASIS          =    CC-PVDZ


 Recomputing integrals since basis changed


 Using spherical harmonics

 Library entry C      S cc-pVDZ              selected for orbital group  1
 Library entry C      P cc-pVDZ              selected for orbital group  1
 Library entry C      D cc-pVDZ              selected for orbital group  1
 Library entry O      S cc-pVDZ              selected for orbital group  2
 Library entry O      P cc-pVDZ              selected for orbital group  2
 Library entry O      D cc-pVDZ              selected for orbital group  2
 Library entry H      S cc-pVDZ              selected for orbital group  3
 Library entry H      P cc-pVDZ              selected for orbital group  3

1PROGRAM * SEWARD (Integral evaluation for generally contracted gaussian basis sets)     Author: Roland Lindh, 1990

 Geometry written to block  1 of record 700


 Point group  C1  



 ATOMIC COORDINATES

 NR  ATOM    CHARGE       X              Y              Z

   1  C       6.00    3.357976046    1.344348918   -0.089443368
   2  C       6.00    0.929389944   -0.112133761   -0.371343028
   3  C       6.00    0.850822869   -2.902444165    0.191765867
   4  O       8.00   -1.059465880    1.373586193    0.480773140
   5  O       8.00   -3.473029470    0.174120836   -0.227764683
   6  H       1.00    4.885668125    0.397659498   -1.155542598
   7  H       1.00    3.138352357    3.291993139   -0.806239952
   8  H       1.00    3.959473163    1.461120558    1.922951129
   9  H       1.00   -0.954866423   -3.747657449   -0.415724773
  10  H       1.00    2.421602539   -3.870100727   -0.788168723
  11  H       1.00    1.060946691   -3.249783431    2.257868351
  12  H       1.00   -3.756720583    1.040665376   -1.827389912

 Bond lengths in Bohr (Angstrom)

 1-2  2.845846037  1-6  2.089648658  1-7  2.086947512  1-8  2.103607856  2-3  2.847647549
     ( 1.505956863)     ( 1.105794445)     ( 1.104365060)     ( 1.113181334)     ( 1.506910182)

  2- 4  2.624692979   3- 9  2.084213087   3-10  2.089014073   3-11  2.105605866   4- 5  2.786760160
       ( 1.388927705)       ( 1.102918065)       ( 1.105458636)       ( 1.114238635)       ( 1.474689964)

  5-12  1.841244405
       ( 0.974344576)

 Bond angles

  1-2-3  120.36086517   1-2-4  108.95253742   2-1-6  109.96750466   2-1-7  110.71997548

  2- 1- 8  111.54198523   2- 3- 9  111.32339629   2- 3-10  109.89999070   2- 3-11  110.66601636

  2- 4- 5  109.27421260   3- 2- 4  118.00523076   4- 5-12   98.72910024   6- 1- 7  108.93549318

  6- 1- 8  107.70803670   7- 1- 8  107.87008640   9- 3-10  109.07872549   9- 3-11  107.79214416

 10- 3-11  107.98941791

 NUCLEAR CHARGE:                   41
 NUMBER OF PRIMITIVE AOS:         184
 NUMBER OF SYMMETRY AOS:          179
 NUMBER OF CONTRACTIONS:          105   ( 105A   )
 NUMBER OF CORE ORBITALS:           5   (   5A   )
 NUMBER OF VALENCE ORBITALS:       27   (  27A   )


 NUCLEAR REPULSION ENERGY  183.23630847


 Eigenvalues of metric

         1 0.345E-02 0.435E-02 0.105E-01 0.141E-01 0.182E-01 0.214E-01 0.331E-01 0.346E-01


 Contracted 2-electron integrals neglected if value below      1.0D-16
 AO integral compression algorithm  1   Integral accuracy      1.0D-16

     127.402 MB (compressed) written to integral file ( 93.4%)

     Node minimum: 36.438 MB, node maximum: 51.905 MB


 NUMBER OF SORTED TWO-ELECTRON INTEGRALS:    5164320.     BUFFER LENGTH:  32768
 NUMBER OF SEGMENTS:   1  SEGMENT LENGTH:    5164320      RECORD LENGTH: 524288

 Memory used in sort:       5.72 MW

 SORT1 READ    17075251. AND WROTE     5135903. INTEGRALS IN     15 RECORDS. CPU TIME:     0.35 SEC, REAL TIME:     0.41 SEC
 SORT2 READ    15396604. AND WROTE    15487395. INTEGRALS IN    417 RECORDS. CPU TIME:     0.10 SEC, REAL TIME:     0.16 SEC

 Node minimum:     5160610.  Node maximum:     5164320. integrals

 OPERATOR DM      FOR CENTER  0  COORDINATES:    0.000000    0.000000    0.000000


 **********************************************************************************************************************************
 DATASETS  * FILE   NREC   LENGTH (MB)   RECORD NAMES
              1      18        3.17       500      610      700      900      950      970     1000      129      960     1100   
                                          VAR    BASINP    GEOM    SYMINP    ZMAT    AOBASIS   BASIS     P2S    ABASIS      S 
                                         1400     1410     1200     1210     1080     1600     1650     1700   
                                           T        V       H0       H01     AOSYM     SMH    MOLCAS    OPER   

 PROGRAMS   *        TOTAL       INT
 CPU TIMES  *         1.43      1.36
 REAL TIME  *         1.83 SEC
 DISK USED  *       313.61 MB      
 GA USED    *         0.00 MB       (max)       0.00 MB       (current)
 **********************************************************************************************************************************

1PROGRAM * RHF-SCF (OPEN SHELL)       Authors: W. Meyer, H.-J. Werner


 NUMBER OF ELECTRONS:      21+   20-    SPACE SYMMETRY=1    SPIN SYMMETRY: Doublet 
 CONVERGENCE THRESHOLDS:    1.00E-10 (Density)    1.00E-11 (Energy)
 MAX. NUMBER OF ITERATIONS:      200
 INTERPOLATION TYPE:            DIIS
 INTERPOLATION STEPS:              2 (START)      1 (STEP)
 LEVEL SHIFTS:                 -0.30 (CLOSED)  0.00 (OPEN) 



 Orbital guess generated from atomic densities. Full valence occupancy:   32

 Molecular orbital dump at record        2100.2

 ITERATION    DDIFF          GRAD             ENERGY        2-EL.EN.            DIPOLE MOMENTS         DIIS
    1      0.000D+00      0.000D+00      -267.17823184    555.845952    0.57070    0.04960   -0.74969    0
    2      0.000D+00      0.617D-02      -267.24890921    555.765146    0.41365   -0.13029   -0.59860    1
    3      0.927D-02      0.214D-02      -267.26109451    555.683369    0.39320   -0.05825   -0.62600    2
    4      0.336D-02      0.912D-03      -267.26471112    555.835634    0.37844   -0.09827   -0.64240    3
    5      0.186D-02      0.364D-03      -267.26528289    555.806939    0.38093   -0.09174   -0.63539    4
    6      0.793D-03      0.110D-03      -267.26535996    555.793226    0.37917   -0.09152   -0.63814    5
    7      0.278D-03      0.513D-04      -267.26538028    555.790213    0.37844   -0.09126   -0.63764    6
    8      0.144D-03      0.273D-04      -267.26538638    555.788271    0.37870   -0.09137   -0.63786    7
    9      0.928D-04      0.115D-04      -267.26538730    555.788588    0.37888   -0.09133   -0.63762    8
   10      0.367D-04      0.503D-05      -267.26538746    555.789199    0.37914   -0.09134   -0.63768    9
   11      0.147D-04      0.197D-05      -267.26538748    555.789040    0.37919   -0.09134   -0.63769    9
   12      0.653D-05      0.671D-06      -267.26538749    555.789175    0.37921   -0.09134   -0.63768    9
   13      0.227D-05      0.227D-06      -267.26538749    555.789090    0.37921   -0.09134   -0.63768    9
   14      0.632D-06      0.759D-07      -267.26538749    555.789099    0.37922   -0.09134   -0.63768    9
   15      0.193D-06      0.301D-07      -267.26538749    555.789095    0.37922   -0.09134   -0.63768    9
   16      0.827D-07      0.145D-07      -267.26538749    555.789096    0.37922   -0.09134   -0.63768    9
   17      0.375D-07      0.752D-08      -267.26538749    555.789096    0.37922   -0.09134   -0.63768    9
   18      0.223D-07      0.342D-08      -267.26538749    555.789097    0.37922   -0.09134   -0.63768    9
   19      0.114D-07      0.134D-08      -267.26538749    555.789097    0.37922   -0.09134   -0.63768    9
   20      0.445D-08      0.569D-09      -267.26538749    555.789097    0.37922   -0.09134   -0.63768    9
   21      0.166D-08      0.287D-09      -267.26538749    555.789097    0.37922   -0.09134   -0.63768    9
   22      0.757D-09      0.162D-09      -267.26538749    555.789097    0.37922   -0.09134   -0.63768    9
   23      0.446D-09      0.798D-10      -267.26538749    555.789097    0.37922   -0.09134   -0.63768    9
   24      0.264D-09      0.318D-10      -267.26538749    555.789097    0.37922   -0.09134   -0.63768    9
   25      0.935D-10      0.130D-10      -267.26538749    555.789097    0.37922   -0.09134   -0.63768    0

 Final alpha occupancy:  21
 Final beta  occupancy:  20

 !RHF STATE 1.1 Energy               -267.265387486364
 Nuclear energy                       183.23630847
 One-electron energy                 -728.39624423
 Two-electron energy                  277.89454828
 Virial quotient                       -1.00155345
 !RHF STATE 1.1 Dipole moment           0.37921813    -0.09133744    -0.63767919
 Dipole moment /Debye                   0.96381321    -0.23214141    -1.62071268

 Orbital energies:

         1.1          2.1          3.1          4.1          5.1          6.1          7.1          8.1          9.1         10.1
    -20.630496   -20.628893   -11.279214   -11.237839   -11.232222    -1.470321    -1.240955    -1.023152    -0.945288    -0.768571

        11.1         12.1         13.1         14.1         15.1         16.1         17.1         18.1         19.1         20.1
     -0.704665    -0.643055    -0.626826    -0.588912    -0.544991    -0.543341    -0.538876    -0.516978    -0.493159    -0.469725

        21.1         22.1         23.1
     -0.352191     0.181280     0.183493


 **********************************************************************************************************************************
 DATASETS  * FILE   NREC   LENGTH (MB)   RECORD NAMES
              1      18        3.17       500      610      700      900      950      970     1000      129      960     1100   
                                          VAR    BASINP    GEOM    SYMINP    ZMAT    AOBASIS   BASIS     P2S    ABASIS      S 
                                         1400     1410     1200     1210     1080     1600     1650     1700   
                                           T        V       H0       H01     AOSYM     SMH    MOLCAS    OPER   

              2       3        0.77       700     1000     2100   
                                         GEOM     BASIS     RHF  

 PROGRAMS   *        TOTAL       RHF       INT
 CPU TIMES  *         3.22      1.79      1.36
 REAL TIME  *         3.81 SEC
 DISK USED  *       330.18 MB      
 SF USED    *         0.04 MB      
 GA USED    *         0.00 MB       (max)       0.00 MB       (current)
 **********************************************************************************************************************************


1PROGRAM * CCSD (Unrestricted open-shell coupled cluster)     Authors: C. Hampel, H.-J. Werner, 1991, M. Deegan, P.J. Knowles, 1992


 Convergence thresholds:  THRVAR = 1.00D-08  THRDEN = 1.00D-10

 CCSD(T)     terms to be evaluated (factor= 1.000)


 Number of core orbitals:           5 (   5 )
 Number of closed-shell orbitals:  15 (  15 )
 Number of active  orbitals:        1 (   1 )
 Number of external orbitals:      84 (  84 )

 Memory could be reduced to 24.91 Mwords without degradation in triples

 Number of N-1 electron functions:              31
 Number of N-2 electron functions:             465
 Number of singly external CSFs:              2635
 Number of doubly external CSFs:           2537250
 Total number of CSFs:                     2539885

 Molecular orbitals read from record     2100.2  Type=RHF/CANONICAL (state 1.1)

 Integral transformation finished. Total CPU:   1.26 sec, npass=  1  Memory used:  12.63 MW

 Starting RMP2 calculation

 ITER.      SQ.NORM     CORR.ENERGY   TOTAL ENERGY   ENERGY CHANGE        DEN1      VAR(S)    VAR(P)  DIIS     TIME
   1      1.24302648    -0.78637801  -268.05176549    -0.78637801    -0.00304962  0.20D-04  0.11D-02  1  1     1.70
   2      1.24566780    -0.78966681  -268.05505429    -0.00328880    -0.00000475  0.54D-06  0.19D-05  2  2     2.07
   3      1.24573338    -0.78970888  -268.05509637    -0.00004208    -0.00000003  0.16D-07  0.68D-08  3  3     2.47
   4      1.24573433    -0.78970888  -268.05509637    -0.00000000    -0.00000000  0.27D-09  0.38D-10  4  4     2.90
   5      1.24573441    -0.78970892  -268.05509640    -0.00000003    -0.00000000  0.25D-11  0.65D-12  5  5     3.37
   6      1.24573443    -0.78970892  -268.05509641    -0.00000001    -0.00000000  0.28D-13  0.87D-14  6  6     3.85
   7      1.24573443    -0.78970892  -268.05509641     0.00000000    -0.00000000  0.47D-15  0.12D-15  6  1     4.35
   8      1.24573443    -0.78970892  -268.05509641     0.00000000    -0.00000000  0.60D-17  0.13D-17  6  2     4.84

 Norm of t1 vector:      0.03893588      S-energy:    -0.00227195      T1 diagnostic:  0.00055047
 Norm of t2 vector:      0.49418461      P-energy:    -0.78743698
                                         Alpha-Beta:  -0.59341400
                                         Alpha-Alpha: -0.10094221
                                         Beta-Beta:   -0.09308077

 Spin contamination <S**2-Sz**2-Sz>     0.00104049
  Reference energy                   -267.265387486364
  RHF-RMP2 correlation energy          -0.789708923462
 !RHF-RMP2 energy                    -268.055096409826

 Starting UCCSD calculation

 ITER.      SQ.NORM     CORR.ENERGY   TOTAL ENERGY   ENERGY CHANGE        DEN1      VAR(S)    VAR(P)  DIIS     TIME
   1      1.26280296    -0.80905117  -268.07443866    -0.80905117    -0.02515488  0.38D-02  0.59D-02  1  1    12.47
   2      1.29157844    -0.83645978  -268.10184727    -0.02740861    -0.00201099  0.22D-03  0.66D-03  2  2    20.07
   3      1.30152163    -0.84095822  -268.10634570    -0.00449843    -0.00032469  0.19D-03  0.56D-04  3  3    27.69
   4      1.30643731    -0.84243552  -268.10782301    -0.00147731    -0.00007216  0.43D-04  0.14D-04  4  4    34.79
   5      1.30917089    -0.84282399  -268.10821148    -0.00038847    -0.00002371  0.19D-04  0.32D-05  5  5    40.32
   6      1.31111429    -0.84302878  -268.10841627    -0.00020479    -0.00000647  0.42D-05  0.12D-05  6  6    45.85
   7      1.31206637    -0.84308772  -268.10847520    -0.00005893    -0.00000209  0.14D-05  0.37D-06  6  2    51.37
   8      1.31250952    -0.84313048  -268.10851797    -0.00004276    -0.00000066  0.45D-06  0.11D-06  6  1    56.90
   9      1.31269588    -0.84313511  -268.10852259    -0.00000463    -0.00000022  0.15D-06  0.35D-07  6  4    62.98
  10      1.31275943    -0.84313804  -268.10852553    -0.00000294    -0.00000005  0.35D-07  0.96D-08  6  3    68.51
  11      1.31278912    -0.84313680  -268.10852428     0.00000125    -0.00000002  0.13D-07  0.28D-08  6  5    74.06
  12      1.31279958    -0.84313654  -268.10852403     0.00000026    -0.00000000  0.26D-08  0.96D-09  6  6    79.57
  13      1.31279844    -0.84313562  -268.10852311     0.00000092    -0.00000000  0.97D-09  0.29D-09  6  2    85.11
  14      1.31279321    -0.84313477  -268.10852226     0.00000085    -0.00000000  0.21D-09  0.68D-10  6  1    90.64
  15      1.31278912    -0.84313418  -268.10852167     0.00000059    -0.00000000  0.78D-10  0.19D-10  6  4    96.18
  16      1.31278593    -0.84313380  -268.10852129     0.00000038    -0.00000000  0.28D-10  0.63D-11  6  3   101.65
  17      1.31278372    -0.84313356  -268.10852105     0.00000024    -0.00000000  0.10D-10  0.24D-11  6  5   107.14
  18      1.31278281    -0.84313350  -268.10852099     0.00000006    -0.00000000  0.41D-11  0.88D-12  6  6   112.64
  19      1.31278220    -0.84313347  -268.10852095     0.00000003    -0.00000000  0.16D-11  0.37D-12  6  2   118.10
  20      1.31278188    -0.84313345  -268.10852094     0.00000001    -0.00000000  0.60D-12  0.13D-12  6  1   123.60
  21      1.31278171    -0.84313344  -268.10852093     0.00000001    -0.00000000  0.28D-12  0.58D-13  6  4   129.08
  22      1.31278159    -0.84313344  -268.10852092     0.00000001    -0.00000000  0.74D-13  0.22D-13  6  3   134.56
  23      1.31278153    -0.84313343  -268.10852092     0.00000000    -0.00000000  0.22D-13  0.63D-14  6  5   140.11
  24      1.31278152    -0.84313343  -268.10852092    -0.00000000    -0.00000000  0.68D-14  0.23D-14  6  6   145.58
  25      1.31278153    -0.84313343  -268.10852092    -0.00000000    -0.00000000  0.21D-14  0.53D-15  6  2   151.07
  26      1.31278154    -0.84313344  -268.10852092    -0.00000000    -0.00000000  0.77D-15  0.15D-15  6  1   156.59
  27      1.31278155    -0.84313344  -268.10852092    -0.00000000    -0.00000000  0.20D-15  0.63D-16  6  3   162.08
  28      1.31278155    -0.84313344  -268.10852092    -0.00000000    -0.00000000  0.30D-16  0.11D-16  6  4   167.55
  29      1.31278155    -0.84313344  -268.10852092    -0.00000000    -0.00000000  0.71D-17  0.29D-17  6  5   173.09
  30      1.31278155    -0.84313344  -268.10852092    -0.00000000    -0.00000000  0.15D-17  0.54D-18  6  6   178.65
  31      1.31278155    -0.84313344  -268.10852092    -0.00000000    -0.00000000  0.36D-18  0.11D-18  6  2   184.81

 Norm of t1 vector:      0.13876571      S-energy:    -0.00282179      T1 diagnostic:  0.01617465
                                                                       D1 diagnostic:  0.06282279
 Norm of t2 vector:      0.54178006      P-energy:    -0.84031165
                                         Alpha-Beta:  -0.66486328
                                         Alpha-Alpha: -0.09147570
                                         Beta-Beta:   -0.08397267

 Spin contamination <S**2-Sz**2-Sz>     0.00217753

 Memory could be reduced to 28.85 Mwords without degradation in triples
 

 RESULTS
 =======

  Reference energy                   -267.265387486364
  UCCSD singles energy                 -0.002821789917
  UCCSD pair energy                    -0.840311646871
  UCCSD correlation energy             -0.843133436788
  Triples (T) contribution             -0.024975330184
  Total correlation energy             -0.868108766973
 
  RHF-UCCSD energy                   -268.108520923152
  RHF-UCCSD[T] energy                -268.134831846856
  RHF-UCCSD-T energy                 -268.133075103738
 !RHF-UCCSD(T) energy                -268.133496253337

 Program statistics:

 Available memory in ccsd:               999997692
 Min. memory needed in ccsd:               7337057
 Max. memory used in ccsd:                10523002
 Max. memory used in cckext:              10867977 (31 integral passes)
 Max. memory used in cckint:              12633073 ( 1 integral passes)



 **********************************************************************************************************************************
 DATASETS  * FILE   NREC   LENGTH (MB)   RECORD NAMES
              1      18        3.17       500      610      700      900      950      970     1000      129      960     1100   
                                          VAR    BASINP    GEOM    SYMINP    ZMAT    AOBASIS   BASIS     P2S    ABASIS      S 
                                         1400     1410     1200     1210     1080     1600     1650     1700   
                                           T        V       H0       H01     AOSYM     SMH    MOLCAS    OPER   

              2       3        0.77       700     1000     2100   
                                         GEOM     BASIS     RHF  

 PROGRAMS   *        TOTAL  UCCSD(T)       RHF       INT
 CPU TIMES  *       239.38    236.15      1.79      1.36
 REAL TIME  *       257.01 SEC
 DISK USED  *         1.30 GB      
 SF USED    *       553.73 MB      
 GA USED    *         0.00 MB       (max)       0.00 MB       (current)
 **********************************************************************************************************************************

        UCCSD(T)        RHF-SCF 
   -268.13349625   -267.26538749
 **********************************************************************************************************************************
 Variable memory released
