
 Primary working directories    : /tmp/320938.688.gen6.q
 Secondary working directories  : /tmp/320938.688.gen6.q
 Wavefunction directory         : /home/vulcan/mel64643/wfu/
 Main file repository           : /tmp/320938.688.gen6.q/

 ARCHNAME  : Linux/x86_64
 FC        : /opt/intel/compilers_and_libraries_2016.1.150/linux/bin/intel64/ifort
 FCVERSION : 16.0.1
 BLASLIB   : -mkl
 id        : ccgc

 Nodes     nprocs
 n080         3
 Number of processes for MPI-2 version of Molpro:   nprocs(total)=    4   nprocs(compute)=    3   nprocs(helper)=    1
 ga_uses_ma=false, calling ma_init with nominal heap.
 GA-space will be limited to   8.0 MW (determined by -G option)

 Using customized tuning parameters: mindgm=10; mindgv=16; mindgc=4; mindgr=1; noblas=0; mincuda=1000; minvec=7
 default implementation of scratch files=sf  

 ***,Frequencies for min3
 memory,1000,m
 gthresh,energy=1.0d-10,orbital=1.0d-10,oneint=1.0d-16,twoint=1.0d-16,optgrad=1.0d-6,compress=1.0d-13
 geomtyp=xyz
 
  geometry = {
  12
  arbitrary comment
     C    1.776964391707    0.711398808326   -0.047331391796
     C    0.491811976407   -0.059992870174   -0.196493901896
     C    0.450332819107   -1.536294019674    0.101417522804
     O   -0.560767745493    0.727234937526    0.254453964104
     O   -1.837840335593    0.092269037726   -0.120531795196
     H    2.585373063107    0.211465914126   -0.611440883996
     H    1.660426393907    1.742887987326   -0.426532369096
     H    2.095123485707    0.774048097326    1.017650404504
     H   -0.502697262277   -1.982704456299   -0.219853823876
     H    1.280810507417   -2.047689650668   -0.417312100860
     H    0.562330663574   -1.720131787611    1.195673973785
     H   -1.989683242986    0.552211900481   -0.968002274732
  }
 
 basis=cc-pvdz
 {rhf;maxit,200}
 {uccsd(t);maxit,200}

 Variables initialized (661), CPU time= 0.00 sec
 Commands  initialized (458), CPU time= 0.01 sec, 486 directives.
 Default parameters read. Elapsed time= 0.06 sec

 Checking input...
 Passed
1


                                         ***  PROGRAM SYSTEM MOLPRO  ***
                         Copyright, University College Cardiff Consultants Limited, 2008

                                    Version 2010.1 linked May 16 2016 07:17:05


 **********************************************************************************************************************************
 LABEL *   Frequencies for min3                                                          
 Linux-4.4.3/n080(x86_64) 64 bit mpp version                                             DATE: 07-Mar-20          TIME: 05:00:19  
 **********************************************************************************************************************************

 SHA1:             9e8077add272b0f3cad6f7df79ec5211205f459d
 **********************************************************************************************************************************

 THRESHOLDS:

 ZERO    =  1.00D-12  ONEINT  =  1.00D-16  TWOINT  =  1.00D-16  PREFAC  =  1.00D-14  LOCALI  =  1.00D-09  EORDER  =  1.00D-04
 ENERGY  =  1.00D-10  ETEST   =  0.00D+00  EDENS   =  0.00D+00  THRDEDEF=  1.00D-06  GRADIENT=  1.00D-02  STEP    =  1.00D-03
 ORBITAL =  1.00D-10  CIVEC   =  1.00D-05  COEFF   =  1.00D-04  PRINTCI =  5.00D-02  PUNCHCI =  9.90D+01  OPTGRAD =  1.00D-06
 OPTENERG=  1.00D-06  OPTSTEP =  3.00D-04  THRGRAD =  1.00D-10  COMPRESS=  1.00D-13  VARMIN  =  1.00D-07  VARMAX  =  1.00D-03
 THRDOUB =  0.00D+00  THRDIV  =  1.00D-05  THRRED  =  1.00D-07  THRPSP  =  1.00D+00  THRDC   =  1.00D-10  THRCS   =  1.00D-10
 THRNRM  =  1.00D-08  THREQ   =  0.00D+00  THRDE   =  1.00D+00  THRREF  =  1.00D-05  SPARFAC =  1.00D+00  THRDLP  =  1.00D-07
 THRDIA  =  1.00D-10  THRDLS  =  1.00D-07  THRGPS  =  0.00D+00  THRKEX  =  0.00D+00  THRDIS  =  2.00D-01  THRVAR  =  1.00D-10
 THRLOC  =  1.00D-06  THRGAP  =  1.00D-06  THRLOCT = -1.00D+00  THRGAPT = -1.00D+00  THRORB  =  1.00D-06  THRMLTP =  0.00D+00
 THRCPQCI=  1.00D-10  KEXTA   =  0.00D+00  THRCOARS=  0.00D+00  SYMTOL  =  1.00D-06  GRADTOL =  1.00D-06  THROVL  =  1.00D-08
 THRORTH =  1.00D-08  GRID    =  1.00D-06  GRIDMAX =  1.00D-03  DTMAX   =  0.00D+00

 SETTING GEOMTYP        =    XYZ

 Variable memory set to 1000000000 words,  buffer space   230000 words

 SETTING BASIS          =    CC-PVDZ


 Recomputing integrals since basis changed


 Using spherical harmonics

 Library entry C      S cc-pVDZ              selected for orbital group  1
 Library entry C      P cc-pVDZ              selected for orbital group  1
 Library entry C      D cc-pVDZ              selected for orbital group  1
 Library entry O      S cc-pVDZ              selected for orbital group  2
 Library entry O      P cc-pVDZ              selected for orbital group  2
 Library entry O      D cc-pVDZ              selected for orbital group  2
 Library entry H      S cc-pVDZ              selected for orbital group  3
 Library entry H      P cc-pVDZ              selected for orbital group  3

1PROGRAM * SEWARD (Integral evaluation for generally contracted gaussian basis sets)     Author: Roland Lindh, 1990

 Geometry written to block  1 of record 700


 Point group  C1  



 ATOMIC COORDINATES

 NR  ATOM    CHARGE       X              Y              Z

   1  C       6.00    3.357976046    1.344348918   -0.089443368
   2  C       6.00    0.929389944   -0.113370094   -0.371319661
   3  C       6.00    0.851005696   -2.903174955    0.191651343
   4  O       8.00   -1.059697462    1.374274865    0.480848305
   5  O       8.00   -3.473014908    0.174363212   -0.227772083
   6  H       1.00    4.885647037    0.399612664   -1.155455816
   7  H       1.00    3.137751146    3.293580974   -0.806029364
   8  H       1.00    3.959209599    1.462738916    1.923080562
   9  H       1.00   -0.949960153   -3.746768422   -0.415463516
  10  H       1.00    2.420381085   -3.869572642   -0.788605582
  11  H       1.00    1.062650949   -3.250577989    2.259496353
  12  H       1.00   -3.759956418    1.043529258   -1.829259194

 Bond lengths in Bohr (Angstrom)

 1-2  2.846476668  1-6  2.088704811  1-7  2.088420481  1-8  2.103746788  2-3  2.847119878
     ( 1.506290578)     ( 1.105294982)     ( 1.105144521)     ( 1.113254854)     ( 1.506630951)

  2- 4  2.625975338   3- 9  2.079354799   3-10  2.087526585   3-11  2.107478485   4- 5  2.786760112
       ( 1.389606300)       ( 1.100347169)       ( 1.104671492)       ( 1.115229583)       ( 1.474689938)

  5-12  1.844599147
       ( 0.976119828)

 Bond angles

  1-2-3  120.37866573   1-2-4  108.90555081   2-1-6  109.98947225   2-1-7  110.73429490

  2- 1- 8  111.55454090   2- 3- 9  111.32421082   2- 3-10  109.88119346   2- 3-11  110.65711792

  2- 4- 5  109.23946113   3- 2- 4  118.03986083   4- 5-12   98.77730821   6- 1- 7  108.91518355

  6- 1- 8  107.73808609   7- 1- 8  107.80970783   9- 3-10  109.03936867   9- 3-11  107.85358750

 10- 3-11  107.99512948

 NUCLEAR CHARGE:                   41
 NUMBER OF PRIMITIVE AOS:         184
 NUMBER OF SYMMETRY AOS:          179
 NUMBER OF CONTRACTIONS:          105   ( 105A   )
 NUMBER OF CORE ORBITALS:           5   (   5A   )
 NUMBER OF VALENCE ORBITALS:       27   (  27A   )


 NUCLEAR REPULSION ENERGY  183.21276895


 Eigenvalues of metric

         1 0.345E-02 0.435E-02 0.105E-01 0.141E-01 0.182E-01 0.214E-01 0.331E-01 0.346E-01


 Contracted 2-electron integrals neglected if value below      1.0D-16
 AO integral compression algorithm  1   Integral accuracy      1.0D-16

     127.402 MB (compressed) written to integral file ( 93.4%)

     Node minimum: 34.341 MB, node maximum: 56.361 MB


 NUMBER OF SORTED TWO-ELECTRON INTEGRALS:    5164320.     BUFFER LENGTH:  32768
 NUMBER OF SEGMENTS:   1  SEGMENT LENGTH:    5164320      RECORD LENGTH: 524288

 Memory used in sort:       5.72 MW

 SORT1 READ    17075548. AND WROTE     5135866. INTEGRALS IN     15 RECORDS. CPU TIME:     0.30 SEC, REAL TIME:     0.34 SEC
 SORT2 READ    15396539. AND WROTE    15487395. INTEGRALS IN    420 RECORDS. CPU TIME:     0.09 SEC, REAL TIME:     0.13 SEC

 Node minimum:     5160610.  Node maximum:     5164320. integrals

 OPERATOR DM      FOR CENTER  0  COORDINATES:    0.000000    0.000000    0.000000


 **********************************************************************************************************************************
 DATASETS  * FILE   NREC   LENGTH (MB)   RECORD NAMES
              1      18        3.17       500      610      700      900      950      970     1000      129      960     1100   
                                          VAR    BASINP    GEOM    SYMINP    ZMAT    AOBASIS   BASIS     P2S    ABASIS      S 
                                         1400     1410     1200     1210     1080     1600     1650     1700   
                                           T        V       H0       H01     AOSYM     SMH    MOLCAS    OPER   

 PROGRAMS   *        TOTAL       INT
 CPU TIMES  *         1.16      1.09
 REAL TIME  *         1.52 SEC
 DISK USED  *       318.06 MB      
 GA USED    *         0.00 MB       (max)       0.00 MB       (current)
 **********************************************************************************************************************************

1PROGRAM * RHF-SCF (OPEN SHELL)       Authors: W. Meyer, H.-J. Werner


 NUMBER OF ELECTRONS:      21+   20-    SPACE SYMMETRY=1    SPIN SYMMETRY: Doublet 
 CONVERGENCE THRESHOLDS:    1.00E-10 (Density)    1.00E-11 (Energy)
 MAX. NUMBER OF ITERATIONS:      200
 INTERPOLATION TYPE:            DIIS
 INTERPOLATION STEPS:              2 (START)      1 (STEP)
 LEVEL SHIFTS:                 -0.30 (CLOSED)  0.00 (OPEN) 



 Orbital guess generated from atomic densities. Full valence occupancy:   32

 Molecular orbital dump at record        2100.2

 ITERATION    DDIFF          GRAD             ENERGY        2-EL.EN.            DIPOLE MOMENTS         DIIS
    1      0.000D+00      0.000D+00      -267.17819614    555.807509    0.56845    0.05110   -0.75023    0
    2      0.000D+00      0.617D-02      -267.24888265    555.725165    0.41253   -0.13023   -0.59987    1
    3      0.927D-02      0.214D-02      -267.26105475    555.643628    0.39228   -0.05853   -0.62726    2
    4      0.336D-02      0.912D-03      -267.26465850    555.795444    0.37776   -0.09881   -0.64360    3
    5      0.186D-02      0.363D-03      -267.26522678    555.766751    0.38036   -0.09236   -0.63658    4
    6      0.792D-03      0.110D-03      -267.26530300    555.752969    0.37866   -0.09217   -0.63930    5
    7      0.277D-03      0.510D-04      -267.26532305    555.749961    0.37797   -0.09191   -0.63879    6
    8      0.143D-03      0.272D-04      -267.26532909    555.748007    0.37827   -0.09203   -0.63900    7
    9      0.922D-04      0.115D-04      -267.26533000    555.748325    0.37846   -0.09199   -0.63875    8
   10      0.365D-04      0.501D-05      -267.26533016    555.748937    0.37872   -0.09200   -0.63882    9
   11      0.146D-04      0.196D-05      -267.26533018    555.748778    0.37877   -0.09200   -0.63882    9
   12      0.650D-05      0.670D-06      -267.26533019    555.748913    0.37879   -0.09200   -0.63882    9
   13      0.227D-05      0.226D-06      -267.26533019    555.748829    0.37879   -0.09200   -0.63882    9
   14      0.632D-06      0.759D-07      -267.26533019    555.748838    0.37879   -0.09200   -0.63882    9
   15      0.193D-06      0.302D-07      -267.26533019    555.748834    0.37879   -0.09200   -0.63882    9
   16      0.828D-07      0.146D-07      -267.26533019    555.748835    0.37879   -0.09200   -0.63882    9
   17      0.377D-07      0.757D-08      -267.26533019    555.748835    0.37879   -0.09200   -0.63882    9
   18      0.225D-07      0.343D-08      -267.26533019    555.748835    0.37879   -0.09200   -0.63882    9
   19      0.115D-07      0.133D-08      -267.26533019    555.748835    0.37879   -0.09200   -0.63882    9
   20      0.444D-08      0.568D-09      -267.26533019    555.748835    0.37879   -0.09200   -0.63882    9
   21      0.166D-08      0.287D-09      -267.26533019    555.748835    0.37879   -0.09200   -0.63882    9
   22      0.756D-09      0.162D-09      -267.26533019    555.748835    0.37879   -0.09200   -0.63882    9
   23      0.448D-09      0.798D-10      -267.26533019    555.748835    0.37879   -0.09200   -0.63882    9
   24      0.265D-09      0.317D-10      -267.26533019    555.748835    0.37879   -0.09200   -0.63882    9
   25      0.934D-10      0.129D-10      -267.26533019    555.748835    0.37879   -0.09200   -0.63882    0

 Final alpha occupancy:  21
 Final beta  occupancy:  20

 !RHF STATE 1.1 Energy               -267.265330186434
 Nuclear energy                       183.21276895
 One-electron energy                 -728.35251677
 Two-electron energy                  277.87441763
 Virial quotient                       -1.00156090
 !RHF STATE 1.1 Dipole moment           0.37879293    -0.09199806    -0.63881628
 Dipole moment /Debye                   0.96273253    -0.23382043    -1.62360268

 Orbital energies:

         1.1          2.1          3.1          4.1          5.1          6.1          7.1          8.1          9.1         10.1
    -20.630440   -20.628928   -11.279262   -11.237856   -11.232024    -1.469932    -1.240399    -1.023195    -0.945405    -0.768407

        11.1         12.1         13.1         14.1         15.1         16.1         17.1         18.1         19.1         20.1
     -0.704306    -0.643076    -0.626658    -0.588716    -0.545070    -0.543417    -0.538925    -0.516952    -0.492901    -0.469825

        21.1         22.1         23.1
     -0.352290     0.181195     0.183456


 **********************************************************************************************************************************
 DATASETS  * FILE   NREC   LENGTH (MB)   RECORD NAMES
              1      18        3.17       500      610      700      900      950      970     1000      129      960     1100   
                                          VAR    BASINP    GEOM    SYMINP    ZMAT    AOBASIS   BASIS     P2S    ABASIS      S 
                                         1400     1410     1200     1210     1080     1600     1650     1700   
                                           T        V       H0       H01     AOSYM     SMH    MOLCAS    OPER   

              2       3        0.77       700     1000     2100   
                                         GEOM     BASIS     RHF  

 PROGRAMS   *        TOTAL       RHF       INT
 CPU TIMES  *         2.53      1.37      1.09
 REAL TIME  *         3.03 SEC
 DISK USED  *       334.63 MB      
 SF USED    *         0.04 MB      
 GA USED    *         0.00 MB       (max)       0.00 MB       (current)
 **********************************************************************************************************************************


1PROGRAM * CCSD (Unrestricted open-shell coupled cluster)     Authors: C. Hampel, H.-J. Werner, 1991, M. Deegan, P.J. Knowles, 1992


 Convergence thresholds:  THRVAR = 1.00D-08  THRDEN = 1.00D-10

 CCSD(T)     terms to be evaluated (factor= 1.000)


 Number of core orbitals:           5 (   5 )
 Number of closed-shell orbitals:  15 (  15 )
 Number of active  orbitals:        1 (   1 )
 Number of external orbitals:      84 (  84 )

 Memory could be reduced to 24.91 Mwords without degradation in triples

 Number of N-1 electron functions:              31
 Number of N-2 electron functions:             465
 Number of singly external CSFs:              2635
 Number of doubly external CSFs:           2537250
 Total number of CSFs:                     2539885

 Molecular orbitals read from record     2100.2  Type=RHF/CANONICAL (state 1.1)

 Integral transformation finished. Total CPU:   0.93 sec, npass=  1  Memory used:  12.63 MW

 Starting RMP2 calculation

 ITER.      SQ.NORM     CORR.ENERGY   TOTAL ENERGY   ENERGY CHANGE        DEN1      VAR(S)    VAR(P)  DIIS     TIME
   1      1.24306716    -0.78643129  -268.05176147    -0.78643129    -0.00305048  0.20D-04  0.11D-02  1  1     1.26
   2      1.24570934    -0.78972104  -268.05505122    -0.00328975    -0.00000475  0.54D-06  0.19D-05  2  2     1.54
   3      1.24577493    -0.78976312  -268.05509331    -0.00004208    -0.00000003  0.16D-07  0.68D-08  3  3     1.83
   4      1.24577588    -0.78976312  -268.05509331    -0.00000000    -0.00000000  0.27D-09  0.38D-10  4  4     2.15
   5      1.24577596    -0.78976315  -268.05509334    -0.00000003    -0.00000000  0.26D-11  0.66D-12  5  5     2.49
   6      1.24577598    -0.78976316  -268.05509335    -0.00000001    -0.00000000  0.28D-13  0.87D-14  6  6     2.85
   7      1.24577598    -0.78976316  -268.05509335     0.00000000    -0.00000000  0.47D-15  0.12D-15  6  1     3.21
   8      1.24577598    -0.78976316  -268.05509335     0.00000000    -0.00000000  0.60D-17  0.13D-17  6  2     3.58

 Norm of t1 vector:      0.03893643      S-energy:    -0.00227174      T1 diagnostic:  0.00055055
 Norm of t2 vector:      0.49422660      P-energy:    -0.78749141
                                         Alpha-Beta:  -0.59345970
                                         Alpha-Alpha: -0.10094716
                                         Beta-Beta:   -0.09308456

 Spin contamination <S**2-Sz**2-Sz>     0.00104050
  Reference energy                   -267.265330186433
  RHF-RMP2 correlation energy          -0.789763159796
 !RHF-RMP2 energy                    -268.055093346230

 Starting UCCSD calculation

 ITER.      SQ.NORM     CORR.ENERGY   TOTAL ENERGY   ENERGY CHANGE        DEN1      VAR(S)    VAR(P)  DIIS     TIME
   1      1.26283418    -0.80908886  -268.07441905    -0.80908886    -0.02516242  0.38D-02  0.59D-02  1  1     9.64
   2      1.29161873    -0.83650439  -268.10183457    -0.02741553    -0.00201254  0.22D-03  0.66D-03  2  2    15.88
   3      1.30156768    -0.84100520  -268.10633538    -0.00450081    -0.00032492  0.19D-03  0.56D-04  3  3    22.13
   4      1.30648619    -0.84248358  -268.10781376    -0.00147838    -0.00007216  0.43D-04  0.14D-04  4  4    28.38
   5      1.30921895    -0.84287205  -268.10820223    -0.00038847    -0.00002370  0.19D-04  0.32D-05  5  5    34.70
   6      1.31116024    -0.84307672  -268.10840690    -0.00020467    -0.00000647  0.42D-05  0.12D-05  6  6    41.06
   7      1.31211079    -0.84313558  -268.10846577    -0.00005886    -0.00000208  0.14D-05  0.37D-06  6  2    47.46
   8      1.31255294    -0.84317830  -268.10850849    -0.00004272    -0.00000065  0.45D-06  0.11D-06  6  1    53.91
   9      1.31273843    -0.84318290  -268.10851308    -0.00000460    -0.00000022  0.15D-06  0.35D-07  6  4    60.42
  10      1.31280169    -0.84318584  -268.10851602    -0.00000294    -0.00000005  0.35D-07  0.95D-08  6  3    66.88
  11      1.31283118    -0.84318457  -268.10851475     0.00000127    -0.00000002  0.13D-07  0.28D-08  6  5    73.26
  12      1.31284155    -0.84318430  -268.10851449     0.00000027    -0.00000000  0.26D-08  0.95D-09  6  6    79.54
  13      1.31284040    -0.84318338  -268.10851357     0.00000092    -0.00000000  0.96D-09  0.29D-09  6  2    85.85
  14      1.31283518    -0.84318254  -268.10851273     0.00000085    -0.00000000  0.21D-09  0.68D-10  6  1    91.62
  15      1.31283110    -0.84318195  -268.10851214     0.00000059    -0.00000000  0.78D-10  0.19D-10  6  4    96.41
  16      1.31282792    -0.84318157  -268.10851175     0.00000038    -0.00000000  0.28D-10  0.63D-11  6  3   101.19
  17      1.31282571    -0.84318133  -268.10851152     0.00000024    -0.00000000  0.10D-10  0.24D-11  6  5   105.98
  18      1.31282481    -0.84318127  -268.10851146     0.00000006    -0.00000000  0.41D-11  0.87D-12  6  6   110.78
  19      1.31282420    -0.84318124  -268.10851142     0.00000003    -0.00000000  0.16D-11  0.37D-12  6  2   115.55
  20      1.31282388    -0.84318122  -268.10851141     0.00000001    -0.00000000  0.60D-12  0.13D-12  6  1   120.38
  21      1.31282371    -0.84318121  -268.10851140     0.00000001    -0.00000000  0.28D-12  0.58D-13  6  4   125.17
  22      1.31282359    -0.84318121  -268.10851139     0.00000001    -0.00000000  0.74D-13  0.21D-13  6  3   129.97
  23      1.31282353    -0.84318120  -268.10851139     0.00000000    -0.00000000  0.22D-13  0.63D-14  6  5   134.75
  24      1.31282353    -0.84318120  -268.10851139    -0.00000000    -0.00000000  0.68D-14  0.23D-14  6  6   139.56
  25      1.31282353    -0.84318120  -268.10851139    -0.00000000    -0.00000000  0.21D-14  0.53D-15  6  2   144.37
  26      1.31282354    -0.84318121  -268.10851139    -0.00000000    -0.00000000  0.77D-15  0.15D-15  6  1   149.16
  27      1.31282355    -0.84318121  -268.10851139    -0.00000000    -0.00000000  0.20D-15  0.63D-16  6  3   154.10
  28      1.31282355    -0.84318121  -268.10851139    -0.00000000    -0.00000000  0.30D-16  0.11D-16  6  4   158.89
  29      1.31282355    -0.84318121  -268.10851139    -0.00000000    -0.00000000  0.71D-17  0.29D-17  6  5   163.68
  30      1.31282355    -0.84318121  -268.10851139    -0.00000000    -0.00000000  0.15D-17  0.54D-18  6  6   168.48
  31      1.31282356    -0.84318121  -268.10851139    -0.00000000    -0.00000000  0.35D-18  0.10D-18  6  2   173.27

 Norm of t1 vector:      0.13876934      S-energy:    -0.00282162      T1 diagnostic:  0.01617560
                                                                       D1 diagnostic:  0.06283196
 Norm of t2 vector:      0.54181789      P-energy:    -0.84035958
                                         Alpha-Beta:  -0.66491414
                                         Alpha-Alpha: -0.09147480
                                         Beta-Beta:   -0.08397064

 Spin contamination <S**2-Sz**2-Sz>     0.00217349

 Memory could be reduced to 28.85 Mwords without degradation in triples
 

 RESULTS
 =======

  Reference energy                   -267.265330186433
  UCCSD singles energy                 -0.002821622727
  UCCSD pair energy                    -0.840359583618
  UCCSD correlation energy             -0.843181206345
  Triples (T) contribution             -0.024979897890
  Total correlation energy             -0.868161104235
 
  RHF-UCCSD energy                   -268.108511392778
  RHF-UCCSD[T] energy                -268.134827913792
  RHF-UCCSD-T energy                 -268.133069527752
 !RHF-UCCSD(T) energy                -268.133491290668

 Program statistics:

 Available memory in ccsd:               999997692
 Min. memory needed in ccsd:               7337057
 Max. memory used in ccsd:                10523002
 Max. memory used in cckext:              10867977 (31 integral passes)
 Max. memory used in cckint:              12633073 ( 1 integral passes)



 **********************************************************************************************************************************
 DATASETS  * FILE   NREC   LENGTH (MB)   RECORD NAMES
              1      18        3.17       500      610      700      900      950      970     1000      129      960     1100   
                                          VAR    BASINP    GEOM    SYMINP    ZMAT    AOBASIS   BASIS     P2S    ABASIS      S 
                                         1400     1410     1200     1210     1080     1600     1650     1700   
                                           T        V       H0       H01     AOSYM     SMH    MOLCAS    OPER   

              2       3        0.77       700     1000     2100   
                                         GEOM     BASIS     RHF  

 PROGRAMS   *        TOTAL  UCCSD(T)       RHF       INT
 CPU TIMES  *       212.39    209.86      1.37      1.09
 REAL TIME  *       221.89 SEC
 DISK USED  *         1.30 GB      
 SF USED    *       553.73 MB      
 GA USED    *         0.00 MB       (max)       0.00 MB       (current)
 **********************************************************************************************************************************

        UCCSD(T)        RHF-SCF 
   -268.13349129   -267.26533019
 **********************************************************************************************************************************
 Variable memory released
