
 Primary working directories    : /tmp/320938.114.gen6.q
 Secondary working directories  : /tmp/320938.114.gen6.q
 Wavefunction directory         : /home/vulcan/mel64643/wfu/
 Main file repository           : /tmp/320938.114.gen6.q/

 ARCHNAME  : Linux/x86_64
 FC        : /opt/intel/compilers_and_libraries_2016.1.150/linux/bin/intel64/ifort
 FCVERSION : 16.0.1
 BLASLIB   : -mkl
 id        : ccgc

 Nodes     nprocs
 n076         3
 Number of processes for MPI-2 version of Molpro:   nprocs(total)=    4   nprocs(compute)=    3   nprocs(helper)=    1
 ga_uses_ma=false, calling ma_init with nominal heap.
 GA-space will be limited to   8.0 MW (determined by -G option)

 Using customized tuning parameters: mindgm=10; mindgv=16; mindgc=4; mindgr=1; noblas=0; mincuda=1000; minvec=7
 default implementation of scratch files=sf  

 ***,Frequencies for min3
 memory,1000,m
 gthresh,energy=1.0d-10,orbital=1.0d-10,oneint=1.0d-16,twoint=1.0d-16,optgrad=1.0d-6,compress=1.0d-13
 geomtyp=xyz
 
  geometry = {
  12
  arbitrary comment
     C    1.776964391707    0.711398808326   -0.047331391796
     C    0.491811976407   -0.059992870174   -0.196493901896
     C    0.450332819107   -1.536294019674    0.101417522804
     O   -0.560767745493    0.727234937526    0.254015897436
     O   -1.837841165583    0.092261408667   -0.120248025919
     H    2.585406397951    0.211670253643   -0.610797813273
     H    1.660421877564    1.743024231399   -0.425514666974
     H    2.095028258712    0.773773879394    1.017224158511
     H   -0.504468885970   -1.982736474013   -0.221044962747
     H    1.282521876802   -2.046213918113   -0.416385250595
     H    0.560644154422   -1.720615327383    1.195222987463
     H   -1.987856898484    0.551306438456   -0.966072715082
  }
 
 basis=cc-pvdz
 {rhf;maxit,200}
 {uccsd(t);maxit,200}

 Variables initialized (661), CPU time= 0.01 sec
 Commands  initialized (458), CPU time= 0.00 sec, 486 directives.
 Default parameters read. Elapsed time= 0.06 sec

 Checking input...
 Passed
1


                                         ***  PROGRAM SYSTEM MOLPRO  ***
                         Copyright, University College Cardiff Consultants Limited, 2008

                                    Version 2010.1 linked May 16 2016 07:17:05


 **********************************************************************************************************************************
 LABEL *   Frequencies for min3                                                          
 Linux-4.4.3/n076(x86_64) 64 bit mpp version                                             DATE: 07-Mar-20          TIME: 01:37:19  
 **********************************************************************************************************************************

 SHA1:             9e8077add272b0f3cad6f7df79ec5211205f459d
 **********************************************************************************************************************************

 THRESHOLDS:

 ZERO    =  1.00D-12  ONEINT  =  1.00D-16  TWOINT  =  1.00D-16  PREFAC  =  1.00D-14  LOCALI  =  1.00D-09  EORDER  =  1.00D-04
 ENERGY  =  1.00D-10  ETEST   =  0.00D+00  EDENS   =  0.00D+00  THRDEDEF=  1.00D-06  GRADIENT=  1.00D-02  STEP    =  1.00D-03
 ORBITAL =  1.00D-10  CIVEC   =  1.00D-05  COEFF   =  1.00D-04  PRINTCI =  5.00D-02  PUNCHCI =  9.90D+01  OPTGRAD =  1.00D-06
 OPTENERG=  1.00D-06  OPTSTEP =  3.00D-04  THRGRAD =  1.00D-10  COMPRESS=  1.00D-13  VARMIN  =  1.00D-07  VARMAX  =  1.00D-03
 THRDOUB =  0.00D+00  THRDIV  =  1.00D-05  THRRED  =  1.00D-07  THRPSP  =  1.00D+00  THRDC   =  1.00D-10  THRCS   =  1.00D-10
 THRNRM  =  1.00D-08  THREQ   =  0.00D+00  THRDE   =  1.00D+00  THRREF  =  1.00D-05  SPARFAC =  1.00D+00  THRDLP  =  1.00D-07
 THRDIA  =  1.00D-10  THRDLS  =  1.00D-07  THRGPS  =  0.00D+00  THRKEX  =  0.00D+00  THRDIS  =  2.00D-01  THRVAR  =  1.00D-10
 THRLOC  =  1.00D-06  THRGAP  =  1.00D-06  THRLOCT = -1.00D+00  THRGAPT = -1.00D+00  THRORB  =  1.00D-06  THRMLTP =  0.00D+00
 THRCPQCI=  1.00D-10  KEXTA   =  0.00D+00  THRCOARS=  0.00D+00  SYMTOL  =  1.00D-06  GRADTOL =  1.00D-06  THROVL  =  1.00D-08
 THRORTH =  1.00D-08  GRID    =  1.00D-06  GRIDMAX =  1.00D-03  DTMAX   =  0.00D+00

 SETTING GEOMTYP        =    XYZ

 Variable memory set to 1000000000 words,  buffer space   230000 words

 SETTING BASIS          =    CC-PVDZ


 Recomputing integrals since basis changed


 Using spherical harmonics

 Library entry C      S cc-pVDZ              selected for orbital group  1
 Library entry C      P cc-pVDZ              selected for orbital group  1
 Library entry C      D cc-pVDZ              selected for orbital group  1
 Library entry O      S cc-pVDZ              selected for orbital group  2
 Library entry O      P cc-pVDZ              selected for orbital group  2
 Library entry O      D cc-pVDZ              selected for orbital group  2
 Library entry H      S cc-pVDZ              selected for orbital group  3
 Library entry H      P cc-pVDZ              selected for orbital group  3

1PROGRAM * SEWARD (Integral evaluation for generally contracted gaussian basis sets)     Author: Roland Lindh, 1990

 Geometry written to block  1 of record 700


 Point group  C1  



 ATOMIC COORDINATES

 NR  ATOM    CHARGE       X              Y              Z

   1  C       6.00    3.357976046    1.344348918   -0.089443368
   2  C       6.00    0.929389944   -0.113370094   -0.371319661
   3  C       6.00    0.851005696   -2.903174955    0.191651343
   4  O       8.00   -1.059697462    1.374274865    0.480020479
   5  O       8.00   -3.473016476    0.174348795   -0.227235837
   6  H       1.00    4.885710031    0.399998810   -1.154240589
   7  H       1.00    3.137742611    3.293838438   -0.804106185
   8  H       1.00    3.959029647    1.462220720    1.922275074
   9  H       1.00   -0.953308036   -3.746828927   -0.417714442
  10  H       1.00    2.423615105   -3.866783912   -0.786854089
  11  H       1.00    1.059463909   -3.251491746    2.258644112
  12  H       1.00   -3.756505127    1.041818183   -1.825612855

 Bond lengths in Bohr (Angstrom)

 1-2  2.846476668  1-6  2.087956268  1-7  2.088002657  1-8  2.102895690  2-3  2.847119878
     ( 1.506290578)     ( 1.104898870)     ( 1.104923419)     ( 1.112804472)     ( 1.506630951)

  2- 4  2.625706813   3- 9  2.082937044   3-10  2.087849481   3-11  2.106475379   4- 5  2.786421133
       ( 1.389464203)       ( 1.102242812)       ( 1.104842361)       ( 1.114698762)       ( 1.474510558)

  5-12  1.840564600
       ( 0.973984838)

 Bond angles

  1-2-3  120.37866573   1-2-4  108.90944847   2-1-6  110.00780298   2-1-7  110.74787850

  2- 1- 8  111.54909241   2- 3- 9  111.27708178   2- 3-10  109.80577356   2- 3-11  110.69108733

  2- 4- 5  109.25828609   3- 2- 4  118.04702874   4- 5-12   98.67691340   6- 1- 7  108.96000020

  6- 1- 8  107.70273943   7- 1- 8  107.77286418   9- 3-10  109.17301854   9- 3-11  107.80732567

 10- 3-11  108.00056565

 NUCLEAR CHARGE:                   41
 NUMBER OF PRIMITIVE AOS:         184
 NUMBER OF SYMMETRY AOS:          179
 NUMBER OF CONTRACTIONS:          105   ( 105A   )
 NUMBER OF CORE ORBITALS:           5   (   5A   )
 NUMBER OF VALENCE ORBITALS:       27   (  27A   )


 NUCLEAR REPULSION ENERGY  183.23429924


 Eigenvalues of metric

         1 0.345E-02 0.435E-02 0.105E-01 0.141E-01 0.182E-01 0.214E-01 0.331E-01 0.345E-01


 Contracted 2-electron integrals neglected if value below      1.0D-16
 AO integral compression algorithm  1   Integral accuracy      1.0D-16

     127.664 MB (compressed) written to integral file ( 93.2%)

     Node minimum: 41.157 MB, node maximum: 44.040 MB


 NUMBER OF SORTED TWO-ELECTRON INTEGRALS:    5164320.     BUFFER LENGTH:  32768
 NUMBER OF SEGMENTS:   1  SEGMENT LENGTH:    5164320      RECORD LENGTH: 524288

 Memory used in sort:       5.72 MW

 SORT1 READ    17075251. AND WROTE     5135929. INTEGRALS IN     15 RECORDS. CPU TIME:     0.19 SEC, REAL TIME:     0.23 SEC
 SORT2 READ    15396686. AND WROTE    15487395. INTEGRALS IN    471 RECORDS. CPU TIME:     0.06 SEC, REAL TIME:     0.09 SEC

 Node minimum:     5160610.  Node maximum:     5164320. integrals

 OPERATOR DM      FOR CENTER  0  COORDINATES:    0.000000    0.000000    0.000000


 **********************************************************************************************************************************
 DATASETS  * FILE   NREC   LENGTH (MB)   RECORD NAMES
              1      18        3.17       500      610      700      900      950      970     1000      129      960     1100   
                                          VAR    BASINP    GEOM    SYMINP    ZMAT    AOBASIS   BASIS     P2S    ABASIS      S 
                                         1400     1410     1200     1210     1080     1600     1650     1700   
                                           T        V       H0       H01     AOSYM     SMH    MOLCAS    OPER   

 PROGRAMS   *        TOTAL       INT
 CPU TIMES  *         0.80      0.73
 REAL TIME  *         1.20 SEC
 DISK USED  *       305.53 MB      
 GA USED    *         0.00 MB       (max)       0.00 MB       (current)
 **********************************************************************************************************************************

1PROGRAM * RHF-SCF (OPEN SHELL)       Authors: W. Meyer, H.-J. Werner


 NUMBER OF ELECTRONS:      21+   20-    SPACE SYMMETRY=1    SPIN SYMMETRY: Doublet 
 CONVERGENCE THRESHOLDS:    1.00E-10 (Density)    1.00E-11 (Energy)
 MAX. NUMBER OF ITERATIONS:      200
 INTERPOLATION TYPE:            DIIS
 INTERPOLATION STEPS:              2 (START)      1 (STEP)
 LEVEL SHIFTS:                 -0.30 (CLOSED)  0.00 (OPEN) 



 Orbital guess generated from atomic densities. Full valence occupancy:   32

 Molecular orbital dump at record        2100.2

 ITERATION    DDIFF          GRAD             ENERGY        2-EL.EN.            DIPOLE MOMENTS         DIIS
    1      0.000D+00      0.000D+00      -267.17830210    555.837589    0.56942    0.05039   -0.74797    0
    2      0.000D+00      0.617D-02      -267.24898266    555.761149    0.41400   -0.13060   -0.59796    1
    3      0.928D-02      0.214D-02      -267.26115414    555.678371    0.39369   -0.05864   -0.62535    2
    4      0.336D-02      0.912D-03      -267.26476060    555.830989    0.37914   -0.09886   -0.64183    3
    5      0.186D-02      0.364D-03      -267.26532940    555.802395    0.38168   -0.09239   -0.63484    4
    6      0.792D-03      0.110D-03      -267.26540577    555.788618    0.37994   -0.09219   -0.63758    5
    7      0.277D-03      0.511D-04      -267.26542589    555.785630    0.37923   -0.09193   -0.63707    6
    8      0.144D-03      0.272D-04      -267.26543194    555.783677    0.37950   -0.09205   -0.63729    7
    9      0.924D-04      0.115D-04      -267.26543286    555.783996    0.37968   -0.09201   -0.63704    8
   10      0.366D-04      0.500D-05      -267.26543302    555.784605    0.37994   -0.09202   -0.63711    9
   11      0.146D-04      0.196D-05      -267.26543304    555.784447    0.37999   -0.09201   -0.63711    9
   12      0.650D-05      0.670D-06      -267.26543305    555.784581    0.38001   -0.09201   -0.63711    9
   13      0.227D-05      0.226D-06      -267.26543305    555.784497    0.38001   -0.09202   -0.63711    9
   14      0.632D-06      0.758D-07      -267.26543305    555.784506    0.38002   -0.09202   -0.63711    9
   15      0.193D-06      0.302D-07      -267.26543305    555.784502    0.38002   -0.09202   -0.63711    9
   16      0.828D-07      0.146D-07      -267.26543305    555.784503    0.38002   -0.09202   -0.63711    9
   17      0.377D-07      0.756D-08      -267.26543305    555.784503    0.38002   -0.09202   -0.63711    9
   18      0.225D-07      0.343D-08      -267.26543305    555.784503    0.38002   -0.09202   -0.63711    9
   19      0.114D-07      0.133D-08      -267.26543305    555.784503    0.38002   -0.09202   -0.63711    9
   20      0.443D-08      0.569D-09      -267.26543305    555.784503    0.38002   -0.09202   -0.63711    9
   21      0.166D-08      0.287D-09      -267.26543305    555.784503    0.38002   -0.09202   -0.63711    9
   22      0.758D-09      0.162D-09      -267.26543305    555.784503    0.38002   -0.09202   -0.63711    9
   23      0.447D-09      0.797D-10      -267.26543305    555.784503    0.38002   -0.09202   -0.63711    9
   24      0.264D-09      0.317D-10      -267.26543305    555.784503    0.38002   -0.09202   -0.63711    9
   25      0.933D-10      0.129D-10      -267.26543305    555.784503    0.38002   -0.09202   -0.63711    0

 Final alpha occupancy:  21
 Final beta  occupancy:  20

 !RHF STATE 1.1 Energy               -267.265433046089
 Nuclear energy                       183.23429924
 One-electron energy                 -728.39198401
 Two-electron energy                  277.89225172
 Virial quotient                       -1.00154585
 !RHF STATE 1.1 Dipole moment           0.38001738    -0.09201702    -0.63710633
 Dipole moment /Debye                   0.96584457    -0.23386861    -1.61925671

 Orbital energies:

         1.1          2.1          3.1          4.1          5.1          6.1          7.1          8.1          9.1         10.1
    -20.630449   -20.628811   -11.279251   -11.237764   -11.232197    -1.470329    -1.240812    -1.023231    -0.945389    -0.768524

        11.1         12.1         13.1         14.1         15.1         16.1         17.1         18.1         19.1         20.1
     -0.704739    -0.643091    -0.626833    -0.588803    -0.545049    -0.543507    -0.539006    -0.517005    -0.493026    -0.469799

        21.1         22.1         23.1
     -0.352251     0.181333     0.183624


 **********************************************************************************************************************************
 DATASETS  * FILE   NREC   LENGTH (MB)   RECORD NAMES
              1      18        3.17       500      610      700      900      950      970     1000      129      960     1100   
                                          VAR    BASINP    GEOM    SYMINP    ZMAT    AOBASIS   BASIS     P2S    ABASIS      S 
                                         1400     1410     1200     1210     1080     1600     1650     1700   
                                           T        V       H0       H01     AOSYM     SMH    MOLCAS    OPER   

              2       3        0.77       700     1000     2100   
                                         GEOM     BASIS     RHF  

 PROGRAMS   *        TOTAL       RHF       INT
 CPU TIMES  *         1.68      0.88      0.73
 REAL TIME  *         2.21 SEC
 DISK USED  *       322.10 MB      
 SF USED    *         0.04 MB      
 GA USED    *         0.00 MB       (max)       0.00 MB       (current)
 **********************************************************************************************************************************


1PROGRAM * CCSD (Unrestricted open-shell coupled cluster)     Authors: C. Hampel, H.-J. Werner, 1991, M. Deegan, P.J. Knowles, 1992


 Convergence thresholds:  THRVAR = 1.00D-08  THRDEN = 1.00D-10

 CCSD(T)     terms to be evaluated (factor= 1.000)


 Number of core orbitals:           5 (   5 )
 Number of closed-shell orbitals:  15 (  15 )
 Number of active  orbitals:        1 (   1 )
 Number of external orbitals:      84 (  84 )

 Memory could be reduced to 24.91 Mwords without degradation in triples

 Number of N-1 electron functions:              31
 Number of N-2 electron functions:             465
 Number of singly external CSFs:              2635
 Number of doubly external CSFs:           2537250
 Total number of CSFs:                     2539885

 Molecular orbitals read from record     2100.2  Type=RHF/CANONICAL (state 1.1)

 Integral transformation finished. Total CPU:   0.70 sec, npass=  1  Memory used:  12.63 MW

 Starting RMP2 calculation

 ITER.      SQ.NORM     CORR.ENERGY   TOTAL ENERGY   ENERGY CHANGE        DEN1      VAR(S)    VAR(P)  DIIS     TIME
   1      1.24299337    -0.78634318  -268.05177623    -0.78634318    -0.00304905  0.20D-04  0.11D-02  1  1     0.95
   2      1.24563382    -0.78963135  -268.05506440    -0.00328817    -0.00000474  0.54D-06  0.19D-05  2  2     1.19
   3      1.24569935    -0.78967341  -268.05510645    -0.00004205    -0.00000003  0.16D-07  0.68D-08  3  3     1.45
   4      1.24570030    -0.78967341  -268.05510646    -0.00000000    -0.00000000  0.27D-09  0.38D-10  4  4     1.73
   5      1.24570038    -0.78967344  -268.05510649    -0.00000003    -0.00000000  0.25D-11  0.65D-12  5  5     2.03
   6      1.24570040    -0.78967345  -268.05510649    -0.00000001    -0.00000000  0.28D-13  0.87D-14  6  6     2.36
   7      1.24570040    -0.78967345  -268.05510649     0.00000000    -0.00000000  0.47D-15  0.12D-15  6  1     2.69
   8      1.24570040    -0.78967345  -268.05510649     0.00000000    -0.00000000  0.59D-17  0.13D-17  6  2     3.02

 Norm of t1 vector:      0.03893518      S-energy:    -0.00227189      T1 diagnostic:  0.00055038
 Norm of t2 vector:      0.49415023      P-energy:    -0.78740156
                                         Alpha-Beta:  -0.59338492
                                         Alpha-Alpha: -0.10093824
                                         Beta-Beta:   -0.09307840

 Spin contamination <S**2-Sz**2-Sz>     0.00104051
  Reference energy                   -267.265433046090
  RHF-RMP2 correlation energy          -0.789673448172
 !RHF-RMP2 energy                    -268.055106494262

 Starting UCCSD calculation

 ITER.      SQ.NORM     CORR.ENERGY   TOTAL ENERGY   ENERGY CHANGE        DEN1      VAR(S)    VAR(P)  DIIS     TIME
   1      1.26276735    -0.80901995  -268.07445299    -0.80901995    -0.02515094  0.38D-02  0.59D-02  1  1     7.61
   2      1.29153261    -0.83642376  -268.10185681    -0.02740381    -0.00201029  0.22D-03  0.66D-03  2  2    12.22
   3      1.30146946    -0.84092005  -268.10635310    -0.00449629    -0.00032453  0.19D-03  0.56D-04  3  3    16.83
   4      1.30638065    -0.84239662  -268.10782966    -0.00147657    -0.00007206  0.43D-04  0.14D-04  4  4    21.46
   5      1.30910977    -0.84278467  -268.10821771    -0.00038805    -0.00002365  0.19D-04  0.32D-05  5  5    26.12
   6      1.31104745    -0.84298903  -268.10842207    -0.00020436    -0.00000645  0.42D-05  0.12D-05  6  6    30.81
   7      1.31199548    -0.84304776  -268.10848081    -0.00005874    -0.00000208  0.14D-05  0.37D-06  6  2    35.55
   8      1.31243614    -0.84309038  -268.10852343    -0.00004262    -0.00000065  0.45D-06  0.11D-06  6  1    40.23
   9      1.31262100    -0.84309496  -268.10852800    -0.00000458    -0.00000022  0.15D-06  0.35D-07  6  4    44.92
  10      1.31268405    -0.84309788  -268.10853092    -0.00000292    -0.00000005  0.35D-07  0.95D-08  6  3    49.61
  11      1.31271351    -0.84309662  -268.10852967     0.00000126    -0.00000002  0.13D-07  0.28D-08  6  5    54.29
  12      1.31272386    -0.84309636  -268.10852940     0.00000026    -0.00000000  0.26D-08  0.95D-09  6  6    58.96
  13      1.31272270    -0.84309544  -268.10852849     0.00000092    -0.00000000  0.96D-09  0.28D-09  6  2    63.66
  14      1.31271749    -0.84309460  -268.10852764     0.00000085    -0.00000000  0.21D-09  0.67D-10  6  1    68.34
  15      1.31271342    -0.84309401  -268.10852706     0.00000059    -0.00000000  0.78D-10  0.19D-10  6  4    73.03
  16      1.31271024    -0.84309363  -268.10852667     0.00000038    -0.00000000  0.28D-10  0.62D-11  6  3    79.38
  17      1.31270804    -0.84309339  -268.10852644     0.00000024    -0.00000000  0.10D-10  0.24D-11  6  5    85.70
  18      1.31270714    -0.84309333  -268.10852638     0.00000006    -0.00000000  0.40D-11  0.87D-12  6  6    92.03
  19      1.31270654    -0.84309330  -268.10852634     0.00000003    -0.00000000  0.16D-11  0.37D-12  6  2    98.36
  20      1.31270622    -0.84309328  -268.10852633     0.00000001    -0.00000000  0.60D-12  0.13D-12  6  1   104.68
  21      1.31270606    -0.84309327  -268.10852632     0.00000001    -0.00000000  0.28D-12  0.58D-13  6  4   111.01
  22      1.31270594    -0.84309326  -268.10852631     0.00000001    -0.00000000  0.73D-13  0.21D-13  6  3   117.37
  23      1.31270588    -0.84309326  -268.10852631     0.00000000    -0.00000000  0.21D-13  0.62D-14  6  5   123.68
  24      1.31270587    -0.84309326  -268.10852631    -0.00000000    -0.00000000  0.67D-14  0.22D-14  6  6   130.00
  25      1.31270588    -0.84309326  -268.10852631    -0.00000000    -0.00000000  0.21D-14  0.52D-15  6  2   136.34
  26      1.31270588    -0.84309326  -268.10852631    -0.00000000    -0.00000000  0.76D-15  0.15D-15  6  1   142.65
  27      1.31270589    -0.84309327  -268.10852631    -0.00000000    -0.00000000  0.20D-15  0.62D-16  6  3   148.98
  28      1.31270590    -0.84309327  -268.10852631    -0.00000000    -0.00000000  0.29D-16  0.11D-16  6  4   155.32
  29      1.31270590    -0.84309327  -268.10852631    -0.00000000    -0.00000000  0.70D-17  0.29D-17  6  5   161.64
  30      1.31270590    -0.84309327  -268.10852631    -0.00000000    -0.00000000  0.15D-17  0.53D-18  6  6   167.97
  31      1.31270590    -0.84309327  -268.10852631    -0.00000000    -0.00000000  0.35D-18  0.10D-18  6  2   174.29

 Norm of t1 vector:      0.13869344      S-energy:    -0.00282146      T1 diagnostic:  0.01616622
                                                                       D1 diagnostic:  0.06282941
 Norm of t2 vector:      0.54172874      P-energy:    -0.84027180
                                         Alpha-Beta:  -0.66482508
                                         Alpha-Alpha: -0.09147375
                                         Beta-Beta:   -0.08397297

 Spin contamination <S**2-Sz**2-Sz>     0.00216995

 Memory could be reduced to 28.85 Mwords without degradation in triples
 

 RESULTS
 =======

  Reference energy                   -267.265433046090
  UCCSD singles energy                 -0.002821464540
  UCCSD pair energy                    -0.840271801333
  UCCSD correlation energy             -0.843093265874
  Triples (T) contribution             -0.024970520800
  Total correlation energy             -0.868063786674
 
  RHF-UCCSD energy                   -268.108526311964
  RHF-UCCSD[T] energy                -268.134832184286
  RHF-UCCSD-T energy                 -268.133075494532
 !RHF-UCCSD(T) energy                -268.133496832763

 Program statistics:

 Available memory in ccsd:               999997692
 Min. memory needed in ccsd:               7337057
 Max. memory used in ccsd:                10523002
 Max. memory used in cckext:              10867977 (31 integral passes)
 Max. memory used in cckint:              12633073 ( 1 integral passes)



 **********************************************************************************************************************************
 DATASETS  * FILE   NREC   LENGTH (MB)   RECORD NAMES
              1      18        3.17       500      610      700      900      950      970     1000      129      960     1100   
                                          VAR    BASINP    GEOM    SYMINP    ZMAT    AOBASIS   BASIS     P2S    ABASIS      S 
                                         1400     1410     1200     1210     1080     1600     1650     1700   
                                           T        V       H0       H01     AOSYM     SMH    MOLCAS    OPER   

              2       3        0.77       700     1000     2100   
                                         GEOM     BASIS     RHF  

 PROGRAMS   *        TOTAL  UCCSD(T)       RHF       INT
 CPU TIMES  *       221.16    219.48      0.88      0.73
 REAL TIME  *       230.65 SEC
 DISK USED  *         1.29 GB      
 SF USED    *       553.73 MB      
 GA USED    *         0.00 MB       (max)       0.00 MB       (current)
 **********************************************************************************************************************************

        UCCSD(T)        RHF-SCF 
   -268.13349683   -267.26543305
 **********************************************************************************************************************************
 Variable memory released
