
 Primary working directories    : /tmp/320938.864.gen6.q
 Secondary working directories  : /tmp/320938.864.gen6.q
 Wavefunction directory         : /home/vulcan/mel64643/wfu/
 Main file repository           : /tmp/320938.864.gen6.q/

 ARCHNAME  : Linux/x86_64
 FC        : /opt/intel/compilers_and_libraries_2016.1.150/linux/bin/intel64/ifort
 FCVERSION : 16.0.1
 BLASLIB   : -mkl
 id        : ccgc

 Nodes     nprocs
 n076         3
 Number of processes for MPI-2 version of Molpro:   nprocs(total)=    4   nprocs(compute)=    3   nprocs(helper)=    1
 ga_uses_ma=false, calling ma_init with nominal heap.
 GA-space will be limited to   8.0 MW (determined by -G option)

 Using customized tuning parameters: mindgm=10; mindgv=16; mindgc=4; mindgr=1; noblas=0; mincuda=1000; minvec=7
 default implementation of scratch files=sf  

 ***,Frequencies for min3
 memory,1000,m
 gthresh,energy=1.0d-10,orbital=1.0d-10,oneint=1.0d-16,twoint=1.0d-16,optgrad=1.0d-6,compress=1.0d-13
 geomtyp=xyz
 
  geometry = {
  12
  arbitrary comment
     C    1.776964391707    0.712000627080   -0.047340337089
     C    0.491820899231   -0.060208847683   -0.196493380920
     C    0.450165718438   -1.536501573116    0.101435280963
     O   -0.560664737506    0.727640319465    0.254492695445
     O   -1.837806324316    0.092034843937   -0.120547674105
     H    2.585425509960    0.210524098306   -0.611462470378
     H    1.660740463619    1.742086438406   -0.426406967308
     H    2.095277997634    0.773037199122    1.017683389574
     H   -0.505191289866   -1.983228161708   -0.220299319015
     H    1.281562202467   -2.047942672204   -0.417386381212
     H    0.561514770380   -1.719935341865    1.194549331380
     H   -1.987937244398    0.550706722114   -0.966968478419
  }
 
 basis=cc-pvdz
 {rhf;maxit,200}
 {uccsd(t);maxit,200}

 Variables initialized (661), CPU time= 0.00 sec
 Commands  initialized (458), CPU time= 0.01 sec, 486 directives.
 Default parameters read. Elapsed time= 0.06 sec

 Checking input...
 Passed
1


                                         ***  PROGRAM SYSTEM MOLPRO  ***
                         Copyright, University College Cardiff Consultants Limited, 2008

                                    Version 2010.1 linked May 16 2016 07:17:05


 **********************************************************************************************************************************
 LABEL *   Frequencies for min3                                                          
 Linux-4.4.3/n076(x86_64) 64 bit mpp version                                             DATE: 07-Mar-20          TIME: 06:03:49  
 **********************************************************************************************************************************

 SHA1:             9e8077add272b0f3cad6f7df79ec5211205f459d
 **********************************************************************************************************************************

 THRESHOLDS:

 ZERO    =  1.00D-12  ONEINT  =  1.00D-16  TWOINT  =  1.00D-16  PREFAC  =  1.00D-14  LOCALI  =  1.00D-09  EORDER  =  1.00D-04
 ENERGY  =  1.00D-10  ETEST   =  0.00D+00  EDENS   =  0.00D+00  THRDEDEF=  1.00D-06  GRADIENT=  1.00D-02  STEP    =  1.00D-03
 ORBITAL =  1.00D-10  CIVEC   =  1.00D-05  COEFF   =  1.00D-04  PRINTCI =  5.00D-02  PUNCHCI =  9.90D+01  OPTGRAD =  1.00D-06
 OPTENERG=  1.00D-06  OPTSTEP =  3.00D-04  THRGRAD =  1.00D-10  COMPRESS=  1.00D-13  VARMIN  =  1.00D-07  VARMAX  =  1.00D-03
 THRDOUB =  0.00D+00  THRDIV  =  1.00D-05  THRRED  =  1.00D-07  THRPSP  =  1.00D+00  THRDC   =  1.00D-10  THRCS   =  1.00D-10
 THRNRM  =  1.00D-08  THREQ   =  0.00D+00  THRDE   =  1.00D+00  THRREF  =  1.00D-05  SPARFAC =  1.00D+00  THRDLP  =  1.00D-07
 THRDIA  =  1.00D-10  THRDLS  =  1.00D-07  THRGPS  =  0.00D+00  THRKEX  =  0.00D+00  THRDIS  =  2.00D-01  THRVAR  =  1.00D-10
 THRLOC  =  1.00D-06  THRGAP  =  1.00D-06  THRLOCT = -1.00D+00  THRGAPT = -1.00D+00  THRORB  =  1.00D-06  THRMLTP =  0.00D+00
 THRCPQCI=  1.00D-10  KEXTA   =  0.00D+00  THRCOARS=  0.00D+00  SYMTOL  =  1.00D-06  GRADTOL =  1.00D-06  THROVL  =  1.00D-08
 THRORTH =  1.00D-08  GRID    =  1.00D-06  GRIDMAX =  1.00D-03  DTMAX   =  0.00D+00

 SETTING GEOMTYP        =    XYZ

 Variable memory set to 1000000000 words,  buffer space   230000 words

 SETTING BASIS          =    CC-PVDZ


 Recomputing integrals since basis changed


 Using spherical harmonics

 Library entry C      S cc-pVDZ              selected for orbital group  1
 Library entry C      P cc-pVDZ              selected for orbital group  1
 Library entry C      D cc-pVDZ              selected for orbital group  1
 Library entry O      S cc-pVDZ              selected for orbital group  2
 Library entry O      P cc-pVDZ              selected for orbital group  2
 Library entry O      D cc-pVDZ              selected for orbital group  2
 Library entry H      S cc-pVDZ              selected for orbital group  3
 Library entry H      P cc-pVDZ              selected for orbital group  3

1PROGRAM * SEWARD (Integral evaluation for generally contracted gaussian basis sets)     Author: Roland Lindh, 1990

 Geometry written to block  1 of record 700


 Point group  C1  



 ATOMIC COORDINATES

 NR  ATOM    CHARGE       X              Y              Z

   1  C       6.00    3.357976046    1.345486191   -0.089460272
   2  C       6.00    0.929406805   -0.113778233   -0.371318677
   3  C       6.00    0.850689922   -2.903567174    0.191684901
   4  O       8.00   -1.059502805    1.375040926    0.480921497
   5  O       8.00   -3.472950636    0.173920650   -0.227802090
   6  H       1.00    4.885746147    0.397832890   -1.155496609
   7  H       1.00    3.138344652    3.292066266   -0.805792389
   8  H       1.00    3.959501585    1.460828596    1.923142895
   9  H       1.00   -0.954673182   -3.747758082   -0.416305380
  10  H       1.00    2.421801583   -3.870050783   -0.788745951
  11  H       1.00    1.061109135   -3.250206760    2.257371087
  12  H       1.00   -3.756656958    1.040684884   -1.827305602

 Bond lengths in Bohr (Angstrom)

 1-2  2.847252250  1-6  2.090110459  1-7  2.085795685  1-8  2.103736759  2-3  2.847119898
     ( 1.506700999)     ( 1.106038819)     ( 1.103755539)     ( 1.113249547)     ( 1.506630961)

  2- 4  2.626529505   3- 9  2.083661778   3-10  2.088953584   3-11  2.105111557   4- 5  2.787419859
       ( 1.389899553)       ( 1.102626324)       ( 1.105426627)       ( 1.113977058)       ( 1.475039061)

  5-12  1.841244416
       ( 0.974344581)

 Bond angles

  1-2-3  120.41126878   1-2-4  108.85976831   2-1-6  109.91356052   2-1-7  110.76260738

  2- 1- 8  111.51168143   2- 3- 9  111.29960643   2- 3-10  109.86126060   2- 3-11  110.64812728

  2- 4- 5  109.20136054   3- 2- 4  118.05543804   4- 5-12   98.71026672   6- 1- 7  108.96198470

  6- 1- 8  107.68596394   7- 1- 8  107.90840958   9- 3-10  109.10230534   9- 3-11  107.83137176

 10- 3-11  108.01031285

 NUCLEAR CHARGE:                   41
 NUMBER OF PRIMITIVE AOS:         184
 NUMBER OF SYMMETRY AOS:          179
 NUMBER OF CONTRACTIONS:          105   ( 105A   )
 NUMBER OF CORE ORBITALS:           5   (   5A   )
 NUMBER OF VALENCE ORBITALS:       27   (  27A   )


 NUCLEAR REPULSION ENERGY  183.20587324


 Eigenvalues of metric

         1 0.346E-02 0.435E-02 0.105E-01 0.141E-01 0.182E-01 0.214E-01 0.331E-01 0.346E-01


 Contracted 2-electron integrals neglected if value below      1.0D-16
 AO integral compression algorithm  1   Integral accuracy      1.0D-16

     127.664 MB (compressed) written to integral file ( 93.2%)

     Node minimum: 34.603 MB, node maximum: 56.885 MB


 NUMBER OF SORTED TWO-ELECTRON INTEGRALS:    5164320.     BUFFER LENGTH:  32768
 NUMBER OF SEGMENTS:   1  SEGMENT LENGTH:    5164320      RECORD LENGTH: 524288

 Memory used in sort:       5.72 MW

 SORT1 READ    17075251. AND WROTE     5135893. INTEGRALS IN     15 RECORDS. CPU TIME:     0.30 SEC, REAL TIME:     0.34 SEC
 SORT2 READ    15396581. AND WROTE    15487395. INTEGRALS IN    651 RECORDS. CPU TIME:     0.08 SEC, REAL TIME:     0.13 SEC

 Node minimum:     5160610.  Node maximum:     5164320. integrals

 OPERATOR DM      FOR CENTER  0  COORDINATES:    0.000000    0.000000    0.000000


 **********************************************************************************************************************************
 DATASETS  * FILE   NREC   LENGTH (MB)   RECORD NAMES
              1      18        3.17       500      610      700      900      950      970     1000      129      960     1100   
                                          VAR    BASINP    GEOM    SYMINP    ZMAT    AOBASIS   BASIS     P2S    ABASIS      S 
                                         1400     1410     1200     1210     1080     1600     1650     1700   
                                           T        V       H0       H01     AOSYM     SMH    MOLCAS    OPER   

 PROGRAMS   *        TOTAL       INT
 CPU TIMES  *         1.14      1.05
 REAL TIME  *         1.54 SEC
 DISK USED  *       318.50 MB      
 GA USED    *         0.00 MB       (max)       0.00 MB       (current)
 **********************************************************************************************************************************

1PROGRAM * RHF-SCF (OPEN SHELL)       Authors: W. Meyer, H.-J. Werner


 NUMBER OF ELECTRONS:      21+   20-    SPACE SYMMETRY=1    SPIN SYMMETRY: Doublet 
 CONVERGENCE THRESHOLDS:    1.00E-10 (Density)    1.00E-11 (Energy)
 MAX. NUMBER OF ITERATIONS:      200
 INTERPOLATION TYPE:            DIIS
 INTERPOLATION STEPS:              2 (START)      1 (STEP)
 LEVEL SHIFTS:                 -0.30 (CLOSED)  0.00 (OPEN) 



 Orbital guess generated from atomic densities. Full valence occupancy:   32

 Molecular orbital dump at record        2100.2

 ITERATION    DDIFF          GRAD             ENERGY        2-EL.EN.            DIPOLE MOMENTS         DIIS
    1      0.000D+00      0.000D+00      -267.17817983    555.786572    0.57189    0.04690   -0.74939    0
    2      0.000D+00      0.617D-02      -267.24887169    555.708026    0.41458   -0.13222   -0.59852    1
    3      0.928D-02      0.214D-02      -267.26105680    555.626382    0.39437   -0.05993   -0.62596    2
    4      0.336D-02      0.912D-03      -267.26466916    555.778479    0.37961   -0.09987   -0.64232    3
    5      0.186D-02      0.364D-03      -267.26523905    555.749891    0.38212   -0.09326   -0.63528    4
    6      0.793D-03      0.110D-03      -267.26531563    555.736159    0.38037   -0.09304   -0.63802    5
    7      0.277D-03      0.512D-04      -267.26533586    555.733126    0.37965   -0.09276   -0.63751    6
    8      0.144D-03      0.273D-04      -267.26534196    555.731193    0.37992   -0.09287   -0.63772    7
    9      0.927D-04      0.115D-04      -267.26534288    555.731495    0.38011   -0.09283   -0.63748    8
   10      0.367D-04      0.503D-05      -267.26534304    555.732115    0.38037   -0.09285   -0.63754    9
   11      0.147D-04      0.197D-05      -267.26534306    555.731956    0.38042   -0.09284   -0.63755    9
   12      0.652D-05      0.672D-06      -267.26534307    555.732090    0.38044   -0.09284   -0.63754    9
   13      0.228D-05      0.227D-06      -267.26534307    555.732006    0.38044   -0.09284   -0.63754    9
   14      0.633D-06      0.761D-07      -267.26534307    555.732015    0.38044   -0.09284   -0.63754    9
   15      0.194D-06      0.302D-07      -267.26534307    555.732010    0.38044   -0.09284   -0.63754    9
   16      0.830D-07      0.146D-07      -267.26534307    555.732012    0.38044   -0.09284   -0.63754    9
   17      0.379D-07      0.758D-08      -267.26534307    555.732012    0.38044   -0.09284   -0.63754    9
   18      0.225D-07      0.344D-08      -267.26534307    555.732012    0.38044   -0.09284   -0.63754    9
   19      0.115D-07      0.134D-08      -267.26534307    555.732012    0.38044   -0.09284   -0.63754    9
   20      0.446D-08      0.572D-09      -267.26534307    555.732012    0.38044   -0.09284   -0.63754    9
   21      0.167D-08      0.290D-09      -267.26534307    555.732012    0.38044   -0.09284   -0.63754    9
   22      0.763D-09      0.163D-09      -267.26534307    555.732012    0.38044   -0.09284   -0.63754    9
   23      0.451D-09      0.804D-10      -267.26534307    555.732012    0.38044   -0.09284   -0.63754    9
   24      0.266D-09      0.320D-10      -267.26534307    555.732012    0.38044   -0.09284   -0.63754    9
   25      0.943D-10      0.131D-10      -267.26534307    555.732012    0.38044   -0.09284   -0.63754    0

 Final alpha occupancy:  21
 Final beta  occupancy:  20

 !RHF STATE 1.1 Energy               -267.265343067707
 Nuclear energy                       183.20587324
 One-electron energy                 -728.33722241
 Two-electron energy                  277.86600609
 Virial quotient                       -1.00156033
 !RHF STATE 1.1 Dipole moment           0.38044203    -0.09284362    -0.63754132
 Dipole moment /Debye                   0.96692386    -0.23596950    -1.62036227

 Orbital energies:

         1.1          2.1          3.1          4.1          5.1          6.1          7.1          8.1          9.1         10.1
    -20.630498   -20.628773   -11.279319   -11.237858   -11.232271    -1.469972    -1.240668    -1.023166    -0.945369    -0.768353

        11.1         12.1         13.1         14.1         15.1         16.1         17.1         18.1         19.1         20.1
     -0.704529    -0.642966    -0.626634    -0.588838    -0.545062    -0.543433    -0.538844    -0.517097    -0.492941    -0.469831

        21.1         22.1         23.1
     -0.352367     0.181288     0.183501


 **********************************************************************************************************************************
 DATASETS  * FILE   NREC   LENGTH (MB)   RECORD NAMES
              1      18        3.17       500      610      700      900      950      970     1000      129      960     1100   
                                          VAR    BASINP    GEOM    SYMINP    ZMAT    AOBASIS   BASIS     P2S    ABASIS      S 
                                         1400     1410     1200     1210     1080     1600     1650     1700   
                                           T        V       H0       H01     AOSYM     SMH    MOLCAS    OPER   

              2       3        0.77       700     1000     2100   
                                         GEOM     BASIS     RHF  

 PROGRAMS   *        TOTAL       RHF       INT
 CPU TIMES  *         2.51      1.38      1.05
 REAL TIME  *         3.05 SEC
 DISK USED  *       335.07 MB      
 SF USED    *         0.04 MB      
 GA USED    *         0.00 MB       (max)       0.00 MB       (current)
 **********************************************************************************************************************************


1PROGRAM * CCSD (Unrestricted open-shell coupled cluster)     Authors: C. Hampel, H.-J. Werner, 1991, M. Deegan, P.J. Knowles, 1992


 Convergence thresholds:  THRVAR = 1.00D-08  THRDEN = 1.00D-10

 CCSD(T)     terms to be evaluated (factor= 1.000)


 Number of core orbitals:           5 (   5 )
 Number of closed-shell orbitals:  15 (  15 )
 Number of active  orbitals:        1 (   1 )
 Number of external orbitals:      84 (  84 )

 Memory could be reduced to 24.91 Mwords without degradation in triples

 Number of N-1 electron functions:              31
 Number of N-2 electron functions:             465
 Number of singly external CSFs:              2635
 Number of doubly external CSFs:           2537250
 Total number of CSFs:                     2539885

 Molecular orbitals read from record     2100.2  Type=RHF/CANONICAL (state 1.1)

 Integral transformation finished. Total CPU:   0.69 sec, npass=  1  Memory used:  12.63 MW

 Starting RMP2 calculation

 ITER.      SQ.NORM     CORR.ENERGY   TOTAL ENERGY   ENERGY CHANGE        DEN1      VAR(S)    VAR(P)  DIIS     TIME
   1      1.24307304    -0.78641570  -268.05175877    -0.78641570    -0.00305066  0.20D-04  0.11D-02  1  1     0.95
   2      1.24571568    -0.78970566  -268.05504873    -0.00328996    -0.00000475  0.54D-06  0.19D-05  2  2     1.18
   3      1.24578127    -0.78974775  -268.05509082    -0.00004209    -0.00000003  0.16D-07  0.68D-08  3  3     1.44
   4      1.24578222    -0.78974775  -268.05509082    -0.00000000    -0.00000000  0.27D-09  0.38D-10  4  4     1.72
   5      1.24578231    -0.78974778  -268.05509085    -0.00000003    -0.00000000  0.25D-11  0.65D-12  5  5     2.03
   6      1.24578232    -0.78974779  -268.05509085    -0.00000001    -0.00000000  0.28D-13  0.86D-14  6  6     2.35
   7      1.24578232    -0.78974779  -268.05509085     0.00000000    -0.00000000  0.47D-15  0.12D-15  6  1     2.68
   8      1.24578232    -0.78974779  -268.05509085     0.00000000    -0.00000000  0.59D-17  0.13D-17  6  2     3.01

 Norm of t1 vector:      0.03892764      S-energy:    -0.00227109      T1 diagnostic:  0.00055015
 Norm of t2 vector:      0.49423371      P-energy:    -0.78747669
                                         Alpha-Beta:  -0.59345218
                                         Alpha-Alpha: -0.10094268
                                         Beta-Beta:   -0.09308184

 Spin contamination <S**2-Sz**2-Sz>     0.00104012
  Reference energy                   -267.265343067707
  RHF-RMP2 correlation energy          -0.789747787094
 !RHF-RMP2 energy                    -268.055090854800

 Starting UCCSD calculation

 ITER.      SQ.NORM     CORR.ENERGY   TOTAL ENERGY   ENERGY CHANGE        DEN1      VAR(S)    VAR(P)  DIIS     TIME
   1      1.26284246    -0.80907619  -268.07441925    -0.80907619    -0.02516395  0.38D-02  0.59D-02  1  1     7.60
   2      1.29162831    -0.83649240  -268.10183547    -0.02741621    -0.00201258  0.22D-03  0.66D-03  2  2    12.20
   3      1.30157600    -0.84099314  -268.10633621    -0.00450074    -0.00032482  0.19D-03  0.56D-04  3  3    16.81
   4      1.30649283    -0.84247133  -268.10781440    -0.00147819    -0.00007210  0.43D-04  0.14D-04  4  4    21.44
   5      1.30922302    -0.84285951  -268.10820258    -0.00038818    -0.00002368  0.19D-04  0.32D-05  5  5    26.10
   6      1.31116219    -0.84306402  -268.10840708    -0.00020451    -0.00000646  0.42D-05  0.12D-05  6  6    30.78
   7      1.31211167    -0.84312278  -268.10846584    -0.00005876    -0.00000208  0.14D-05  0.37D-06  6  2    35.49
   8      1.31255385    -0.84316551  -268.10850858    -0.00004274    -0.00000065  0.45D-06  0.11D-06  6  1    40.18
   9      1.31273931    -0.84317011  -268.10851318    -0.00000459    -0.00000022  0.15D-06  0.35D-07  6  4    44.88
  10      1.31280270    -0.84317305  -268.10851612    -0.00000294    -0.00000005  0.35D-07  0.96D-08  6  3    49.57
  11      1.31283231    -0.84317179  -268.10851486     0.00000126    -0.00000002  0.13D-07  0.28D-08  6  5    54.26
  12      1.31284273    -0.84317153  -268.10851460     0.00000026    -0.00000000  0.26D-08  0.96D-09  6  6    58.92
  13      1.31284160    -0.84317062  -268.10851368     0.00000092    -0.00000000  0.97D-09  0.29D-09  6  2    63.61
  14      1.31283639    -0.84316977  -268.10851284     0.00000084    -0.00000000  0.21D-09  0.68D-10  6  1    68.33
  15      1.31283231    -0.84316919  -268.10851225     0.00000059    -0.00000000  0.79D-10  0.19D-10  6  4    73.03
  16      1.31282912    -0.84316880  -268.10851187     0.00000038    -0.00000000  0.28D-10  0.63D-11  6  3    77.71
  17      1.31282692    -0.84316856  -268.10851163     0.00000024    -0.00000000  0.10D-10  0.24D-11  6  5    82.39
  18      1.31282601    -0.84316850  -268.10851157     0.00000006    -0.00000000  0.41D-11  0.87D-12  6  6    87.08
  19      1.31282540    -0.84316847  -268.10851154     0.00000003    -0.00000000  0.16D-11  0.37D-12  6  2    91.77
  20      1.31282508    -0.84316846  -268.10851152     0.00000001    -0.00000000  0.60D-12  0.13D-12  6  1    96.46
  21      1.31282491    -0.84316845  -268.10851151     0.00000001    -0.00000000  0.28D-12  0.58D-13  6  4   101.15
  22      1.31282479    -0.84316844  -268.10851150     0.00000001    -0.00000000  0.74D-13  0.22D-13  6  3   105.86
  23      1.31282473    -0.84316843  -268.10851150     0.00000000    -0.00000000  0.22D-13  0.63D-14  6  5   110.57
  24      1.31282473    -0.84316844  -268.10851150    -0.00000000    -0.00000000  0.68D-14  0.23D-14  6  6   115.25
  25      1.31282473    -0.84316844  -268.10851150    -0.00000000    -0.00000000  0.21D-14  0.53D-15  6  2   119.94
  26      1.31282474    -0.84316844  -268.10851150    -0.00000000    -0.00000000  0.77D-15  0.15D-15  6  1   124.63
  27      1.31282475    -0.84316844  -268.10851151    -0.00000000    -0.00000000  0.20D-15  0.63D-16  6  3   129.30
  28      1.31282475    -0.84316844  -268.10851151    -0.00000000    -0.00000000  0.30D-16  0.11D-16  6  4   133.97
  29      1.31282476    -0.84316844  -268.10851151    -0.00000000    -0.00000000  0.71D-17  0.30D-17  6  5   138.66
  30      1.31282476    -0.84316844  -268.10851151    -0.00000000    -0.00000000  0.15D-17  0.54D-18  6  6   143.37
  31      1.31282476    -0.84316844  -268.10851151    -0.00000000    -0.00000000  0.36D-18  0.11D-18  6  2   148.06

 Norm of t1 vector:      0.13873223      S-energy:    -0.00282071      T1 diagnostic:  0.01617142
                                                                       D1 diagnostic:  0.06283315
 Norm of t2 vector:      0.54182850      P-energy:    -0.84034773
                                         Alpha-Beta:  -0.66490697
                                         Alpha-Alpha: -0.09147160
                                         Beta-Beta:   -0.08396915

 Spin contamination <S**2-Sz**2-Sz>     0.00217144

 Memory could be reduced to 28.85 Mwords without degradation in triples
 

 RESULTS
 =======

  Reference energy                   -267.265343067707
  UCCSD singles energy                 -0.002820711310
  UCCSD pair energy                    -0.840347727210
  UCCSD correlation energy             -0.843168438519
  Triples (T) contribution             -0.024984135597
  Total correlation energy             -0.868152574117
 
  RHF-UCCSD energy                   -268.108511506226
  RHF-UCCSD[T] energy                -268.134832272870
  RHF-UCCSD-T energy                 -268.133073914078
 !RHF-UCCSD(T) energy                -268.133495641824

 Program statistics:

 Available memory in ccsd:               999997692
 Min. memory needed in ccsd:               7337057
 Max. memory used in ccsd:                10523002
 Max. memory used in cckext:              10867977 (31 integral passes)
 Max. memory used in cckint:              12633073 ( 1 integral passes)



 **********************************************************************************************************************************
 DATASETS  * FILE   NREC   LENGTH (MB)   RECORD NAMES
              1      18        3.17       500      610      700      900      950      970     1000      129      960     1100   
                                          VAR    BASINP    GEOM    SYMINP    ZMAT    AOBASIS   BASIS     P2S    ABASIS      S 
                                         1400     1410     1200     1210     1080     1600     1650     1700   
                                           T        V       H0       H01     AOSYM     SMH    MOLCAS    OPER   

              2       3        0.77       700     1000     2100   
                                         GEOM     BASIS     RHF  

 PROGRAMS   *        TOTAL  UCCSD(T)       RHF       INT
 CPU TIMES  *       186.43    183.92      1.38      1.05
 REAL TIME  *       195.57 SEC
 DISK USED  *         1.30 GB      
 SF USED    *       553.73 MB      
 GA USED    *         0.00 MB       (max)       0.00 MB       (current)
 **********************************************************************************************************************************

        UCCSD(T)        RHF-SCF 
   -268.13349564   -267.26534307
 **********************************************************************************************************************************
 Variable memory released
