
    -----------------------------------------------------------------------
          Psi4: An Open-Source Ab Initio Electronic Structure Package
                               Psi4 1.4a2.dev723 

                         Git: Rev {master} fb499f4 


    D. G. A. Smith, L. A. Burns, A. C. Simmonett, R. M. Parrish,
    M. C. Schieber, R. Galvelis, P. Kraus, H. Kruse, R. Di Remigio,
    A. Alenaizan, A. M. James, S. Lehtola, J. P. Misiewicz, M. Scheurer,
    R. A. Shaw, J. B. Schriber, Y. Xie, Z. L. Glick, D. A. Sirianni,
    J. S. O'Brien, J. M. Waldrop, A. Kumar, E. G. Hohenstein,
    B. P. Pritchard, B. R. Brooks, H. F. Schaefer III, A. Yu. Sokolov,
    K. Patkowski, A. E. DePrince III, U. Bozkaya, R. A. King,
    F. A. Evangelista, J. M. Turney, T. D. Crawford, C. D. Sherrill,
    J. Chem. Phys. 152(18) 184108 (2020). https://doi.org/10.1063/5.0006002

                            Additional Code Authors
    E. T. Seidl, C. L. Janssen, E. F. Valeev, M. L. Leininger,
    J. F. Gonthier, R. M. Richard, H. R. McAlexander, M. Saitow, X. Wang,
    P. Verma, and M. H. Lechner

             Previous Authors, Complete List of Code Contributors,
                       and Citations for Specific Modules
    https://github.com/psi4/psi4/blob/master/codemeta.json
    https://github.com/psi4/psi4/graphs/contributors
    http://psicode.org/psi4manual/master/introduction.html#citing-psifour

    -----------------------------------------------------------------------


    Psi4 started on: Monday, 21 December 2020 10:09PM

    Process ID: 484392
    Host:       Mjolnir
    PSIDATADIR: /home/zander/anaconda3/envs/zpsi4/share/psi4
    Memory:     500.0 MiB
    Threads:    1
    
  ==> Input File <==

--------------------------------------------------------------------------
memory 275 mb

molecule {
  O   -0.000000000000    0.000000000000   -0.072223307204
  H    0.000000000000   -0.756119764953    0.573118148156
  H   -0.000000000000    0.756119764953    0.573118148156
}

set basis sto-3g
gradient('scf')
--------------------------------------------------------------------------

  Memory set to 262.260 MiB by Python driver.

Scratch directory: /home/zander/psi_scratch/
gradient() will perform analytic gradient computation.

*** tstart() called on Mjolnir
*** at Mon Dec 21 22:09:27 2020

   => Loading Basis Set <=

    Name: STO-3G
    Role: ORBITAL
    Keyword: BASIS
    atoms 1   entry O          line    81 file /home/zander/anaconda3/envs/zpsi4/share/psi4/basis/sto-3g.gbs 
    atoms 2-3 entry H          line    19 file /home/zander/anaconda3/envs/zpsi4/share/psi4/basis/sto-3g.gbs 


         ---------------------------------------------------------
                                   SCF
               by Justin Turney, Rob Parrish, Andy Simmonett
                          and Daniel G. A. Smith
                              RHF Reference
                        1 Threads,    262 MiB Core
         ---------------------------------------------------------

  ==> Geometry <==

    Molecular point group: c2v
    Full point group: C2v

    Geometry (in Angstrom), charge = 0, multiplicity = 1:

       Center              X                  Y                   Z               Mass       
    ------------   -----------------  -----------------  -----------------  -----------------
         O           -0.000000000000     0.000000000000    -0.072223307204    15.994914619570
         H            0.000000000000    -0.756119764953     0.573118148156     1.007825032230
         H           -0.000000000000     0.756119764953     0.573118148156     1.007825032230

  Running in c2v symmetry.

  Rotational constants: A =     22.61245  B =     14.62851  C =      8.88233 [cm^-1]
  Rotational constants: A = 677904.22014  B = 438551.78321  C = 266285.55330 [MHz]
  Nuclear repulsion =    8.867240265135187

  Charge       = 0
  Multiplicity = 1
  Electrons    = 10
  Nalpha       = 5
  Nbeta        = 5

  ==> Algorithm <==

  SCF Algorithm Type is DF.
  DIIS enabled.
  MOM disabled.
  Fractional occupation disabled.
  Guess Type is SAD.
  Energy threshold   = 1.00e-08
  Density threshold  = 1.00e-08
  Integral threshold = 0.00e+00

  ==> Primary Basis <==

  Basis Set: STO-3G
    Blend: STO-3G
    Number of shells: 5
    Number of basis function: 7
    Number of Cartesian functions: 7
    Spherical Harmonics?: true
    Max angular momentum: 1

   => Loading Basis Set <=

    Name: (STO-3G AUX)
    Role: JKFIT
    Keyword: DF_BASIS_SCF
    atoms 1   entry O          line   318 file /home/zander/anaconda3/envs/zpsi4/share/psi4/basis/def2-universal-jkfit.gbs 
    atoms 2-3 entry H          line    18 file /home/zander/anaconda3/envs/zpsi4/share/psi4/basis/def2-universal-jkfit.gbs 

  ==> Integral Setup <==

  DFHelper Memory: AOs need 0.000 GiB; user supplied 0.192 GiB. Using in-core AOs.

  ==> MemDFJK: Density-Fitted J/K Matrices <==

    J tasked:                   Yes
    K tasked:                   Yes
    wK tasked:                   No
    OpenMP threads:               1
    Memory [MiB]:               196
    Algorithm:                 Core
    Schwarz Cutoff:           1E-12
    Mask sparsity (%):       0.0000
    Fitting Condition:        1E-10

   => Auxiliary Basis Set <=

  Basis Set: (STO-3G AUX)
    Blend: DEF2-UNIVERSAL-JKFIT
    Number of shells: 37
    Number of basis function: 113
    Number of Cartesian functions: 133
    Spherical Harmonics?: true
    Max angular momentum: 4

  Minimum eigenvalue in the overlap matrix is 3.3330903774E-01.
  Reciprocal condition number of the overlap matrix is 1.9565629360E-01.
    Using symmetric orthogonalization.

  ==> Pre-Iterations <==

  SCF Guess: Superposition of Atomic Densities via on-the-fly atomic UHF (no occupation information).

   -------------------------
    Irrep   Nso     Nmo    
   -------------------------
     A1         4       4 
     A2         0       0 
     B1         1       1 
     B2         2       2 
   -------------------------
    Total       7       7
   -------------------------

  ==> Iterations <==

                           Total Energy        Delta E     RMS |[F,P]|

   @DF-RHF iter SAD:   -74.13827739634422   -7.41383e+01   0.00000e+00 
   @DF-RHF iter   1:   -74.90988091693512   -7.71604e-01   5.68780e-02 DIIS
   @DF-RHF iter   2:   -74.96480841799520   -5.49275e-02   9.25625e-03 DIIS
   @DF-RHF iter   3:   -74.96584111400577   -1.03270e-03   1.95839e-03 DIIS
   @DF-RHF iter   4:   -74.96590876368488   -6.76497e-05   1.52722e-04 DIIS
   @DF-RHF iter   5:   -74.96590951076253   -7.47078e-07   1.94714e-05 DIIS
   @DF-RHF iter   6:   -74.96590952174088   -1.09784e-08   1.97787e-07 DIIS
   @DF-RHF iter   7:   -74.96590952174188   -9.94760e-13   8.73385e-10 DIIS
  Energy and wave function converged.


  ==> Post-Iterations <==

    Orbital Energies [Eh]
    ---------------------

    Doubly Occupied:                                                      

       1A1   -20.253550     2A1    -1.256383     1B2    -0.589816  
       3A1    -0.461437     1B1    -0.393041  

    Virtual:                                                              

       4A1     0.578869     2B2     0.684931  

    Final Occupation by Irrep:
             A1    A2    B1    B2 
    DOCC [     3,    0,    1,    1 ]

  @DF-RHF Final Energy:   -74.96590952174188

   => Energetics <=

    Nuclear Repulsion Energy =              8.8672402651351874
    One-Electron Energy =                -121.7578444302161529
    Two-Electron Energy =                  37.9246946433390733
    Total Energy =                        -74.9659095217418781

Computation Completed


Properties will be evaluated at   0.000000,   0.000000,   0.000000 [a0]

Properties computed using the SCF density matrix

  Nuclear Dipole Moment: [e a0]
     X:     0.0000      Y:     0.0000      Z:     1.0742

  Electronic Dipole Moment: [e a0]
     X:     0.0000      Y:     0.0000      Z:    -0.4023

  Dipole Moment: [e a0]
     X:     0.0000      Y:     0.0000      Z:     0.6719     Total:     0.6719

  Dipole Moment: [D]
     X:     0.0000      Y:     0.0000      Z:     1.7079     Total:     1.7079


*** tstop() called on Mjolnir at Mon Dec 21 22:09:27 2020
Module time:
	user time   =       0.35 seconds =       0.01 minutes
	system time =       0.00 seconds =       0.00 minutes
	total time  =          0 seconds =       0.00 minutes
Total time:
	user time   =       0.35 seconds =       0.01 minutes
	system time =       0.00 seconds =       0.00 minutes
	total time  =          0 seconds =       0.00 minutes

*** tstart() called on Mjolnir
*** at Mon Dec 21 22:09:27 2020


         ------------------------------------------------------------
                                   SCF GRAD                          
                          Rob Parrish, Justin Turney,                
                       Andy Simmonett, and Alex Sokolov              
         ------------------------------------------------------------

  ==> Geometry <==

    Molecular point group: c2v
    Full point group: C2v

    Geometry (in Angstrom), charge = 0, multiplicity = 1:

       Center              X                  Y                   Z               Mass       
    ------------   -----------------  -----------------  -----------------  -----------------
         O           -0.000000000000     0.000000000000    -0.072223307204    15.994914619570
         H            0.000000000000    -0.756119764953     0.573118148156     1.007825032230
         H           -0.000000000000     0.756119764953     0.573118148156     1.007825032230

  Nuclear repulsion =    8.867240265135187

  ==> Basis Set <==

  Basis Set: STO-3G
    Blend: STO-3G
    Number of shells: 5
    Number of basis function: 7
    Number of Cartesian functions: 7
    Spherical Harmonics?: true
    Max angular momentum: 1

  ==> DFJKGrad: Density-Fitted SCF Gradients <==

    Gradient:                    1
    J tasked:                  Yes
    K tasked:                  Yes
    wK tasked:                  No
    OpenMP threads:              1
    Integrals threads:           1
    Memory [MiB]:              196
    Schwarz Cutoff:          0E+00
    Fitting Condition:       1E-10

   => Auxiliary Basis Set <=

  Basis Set: (STO-3G AUX)
    Blend: DEF2-UNIVERSAL-JKFIT
    Number of shells: 37
    Number of basis function: 113
    Number of Cartesian functions: 133
    Spherical Harmonics?: true
    Max angular momentum: 4


  -Total Gradient:
     Atom            X                  Y                   Z
    ------   -----------------  -----------------  -----------------
       1       -0.000000000000     0.000000000000    -0.009818508702
       2        0.000000000000    -0.002074601396     0.004909254351
       3       -0.000000000000     0.002074601396     0.004909254351


*** tstop() called on Mjolnir at Mon Dec 21 22:09:27 2020
Module time:
	user time   =       0.07 seconds =       0.00 minutes
	system time =       0.01 seconds =       0.00 minutes
	total time  =          0 seconds =       0.00 minutes
Total time:
	user time   =       0.43 seconds =       0.01 minutes
	system time =       0.01 seconds =       0.00 minutes
	total time  =          0 seconds =       0.00 minutes

    Psi4 stopped on: Monday, 21 December 2020 10:09PM
    Psi4 wall time for execution: 0:00:00.46

*** Psi4 exiting successfully. Buy a developer a beer!
