
 Primary working directories    : /tmp/320938.390.gen4.q
 Secondary working directories  : /tmp/320938.390.gen4.q
 Wavefunction directory         : /home/vulcan/mel64643/wfu/
 Main file repository           : /tmp/320938.390.gen4.q/

 ARCHNAME  : Linux/x86_64
 FC        : /opt/intel/compilers_and_libraries_2016.1.150/linux/bin/intel64/ifort
 FCVERSION : 16.0.1
 BLASLIB   : -mkl
 id        : ccgc

 Nodes     nprocs
 n058         3
 Number of processes for MPI-2 version of Molpro:   nprocs(total)=    4   nprocs(compute)=    3   nprocs(helper)=    1
 ga_uses_ma=false, calling ma_init with nominal heap.
 GA-space will be limited to   8.0 MW (determined by -G option)

 Using customized tuning parameters: mindgm=10; mindgv=16; mindgc=4; mindgr=1; noblas=0; mincuda=1000; minvec=7
 default implementation of scratch files=sf  

 ***,Frequencies for min3
 memory,1000,m
 gthresh,energy=1.0d-10,orbital=1.0d-10,oneint=1.0d-16,twoint=1.0d-16,optgrad=1.0d-6,compress=1.0d-13
 geomtyp=xyz
 
  geometry = {
  12
  arbitrary comment
     C    1.776964391707    0.711398808326   -0.047331391796
     C    0.491811976407   -0.059992870174   -0.196493901896
     C    0.450332819107   -1.536294019674    0.101417522804
     O   -0.560767745493    0.727234937526    0.254453964104
     O   -1.837840335593    0.092269037726   -0.120531795196
     H    2.585373063107    0.211465914126   -0.611440883996
     H    1.660426393907    1.742887987326   -0.426532369096
     H    2.095123485707    0.774048097326    1.017650404504
     H   -0.504871383593   -1.985040039239   -0.220080275891
     H    1.281781458746   -2.046591138316   -0.417193091302
     H    0.561741751147   -1.718486716847    1.194726313307
     H   -1.987891160572    0.551803900306   -0.966947171795
  }
 
 basis=cc-pvdz
 {rhf;maxit,200}
 {uccsd(t);maxit,200}

 Variables initialized (661), CPU time= 0.00 sec
 Commands  initialized (458), CPU time= 0.01 sec, 486 directives.
 Default parameters read. Elapsed time= 0.06 sec

 Checking input...
 Passed
1


                                         ***  PROGRAM SYSTEM MOLPRO  ***
                         Copyright, University College Cardiff Consultants Limited, 2008

                                    Version 2010.1 linked May 16 2016 07:17:05


 **********************************************************************************************************************************
 LABEL *   Frequencies for min3                                                          
 Linux-4.4.3/n058(x86_64) 64 bit mpp version                                             DATE: 07-Mar-20          TIME: 03:15:35  
 **********************************************************************************************************************************

 SHA1:             9e8077add272b0f3cad6f7df79ec5211205f459d
 **********************************************************************************************************************************

 THRESHOLDS:

 ZERO    =  1.00D-12  ONEINT  =  1.00D-16  TWOINT  =  1.00D-16  PREFAC  =  1.00D-14  LOCALI  =  1.00D-09  EORDER  =  1.00D-04
 ENERGY  =  1.00D-10  ETEST   =  0.00D+00  EDENS   =  0.00D+00  THRDEDEF=  1.00D-06  GRADIENT=  1.00D-02  STEP    =  1.00D-03
 ORBITAL =  1.00D-10  CIVEC   =  1.00D-05  COEFF   =  1.00D-04  PRINTCI =  5.00D-02  PUNCHCI =  9.90D+01  OPTGRAD =  1.00D-06
 OPTENERG=  1.00D-06  OPTSTEP =  3.00D-04  THRGRAD =  1.00D-10  COMPRESS=  1.00D-13  VARMIN  =  1.00D-07  VARMAX  =  1.00D-03
 THRDOUB =  0.00D+00  THRDIV  =  1.00D-05  THRRED  =  1.00D-07  THRPSP  =  1.00D+00  THRDC   =  1.00D-10  THRCS   =  1.00D-10
 THRNRM  =  1.00D-08  THREQ   =  0.00D+00  THRDE   =  1.00D+00  THRREF  =  1.00D-05  SPARFAC =  1.00D+00  THRDLP  =  1.00D-07
 THRDIA  =  1.00D-10  THRDLS  =  1.00D-07  THRGPS  =  0.00D+00  THRKEX  =  0.00D+00  THRDIS  =  2.00D-01  THRVAR  =  1.00D-10
 THRLOC  =  1.00D-06  THRGAP  =  1.00D-06  THRLOCT = -1.00D+00  THRGAPT = -1.00D+00  THRORB  =  1.00D-06  THRMLTP =  0.00D+00
 THRCPQCI=  1.00D-10  KEXTA   =  0.00D+00  THRCOARS=  0.00D+00  SYMTOL  =  1.00D-06  GRADTOL =  1.00D-06  THROVL  =  1.00D-08
 THRORTH =  1.00D-08  GRID    =  1.00D-06  GRIDMAX =  1.00D-03  DTMAX   =  0.00D+00

 SETTING GEOMTYP        =    XYZ

 Variable memory set to 1000000000 words,  buffer space   230000 words

 SETTING BASIS          =    CC-PVDZ


 Recomputing integrals since basis changed


 Using spherical harmonics

 Library entry C      S cc-pVDZ              selected for orbital group  1
 Library entry C      P cc-pVDZ              selected for orbital group  1
 Library entry C      D cc-pVDZ              selected for orbital group  1
 Library entry O      S cc-pVDZ              selected for orbital group  2
 Library entry O      P cc-pVDZ              selected for orbital group  2
 Library entry O      D cc-pVDZ              selected for orbital group  2
 Library entry H      S cc-pVDZ              selected for orbital group  3
 Library entry H      P cc-pVDZ              selected for orbital group  3

1PROGRAM * SEWARD (Integral evaluation for generally contracted gaussian basis sets)     Author: Roland Lindh, 1990

 Geometry written to block  1 of record 700


 Point group  C1  



 ATOMIC COORDINATES

 NR  ATOM    CHARGE       X              Y              Z

   1  C       6.00    3.357976046    1.344348918   -0.089443368
   2  C       6.00    0.929389944   -0.113370094   -0.371319661
   3  C       6.00    0.851005696   -2.903174955    0.191651343
   4  O       8.00   -1.059697462    1.374274865    0.480848305
   5  O       8.00   -3.473014908    0.174363212   -0.227772083
   6  H       1.00    4.885647037    0.399612664   -1.155455816
   7  H       1.00    3.137751146    3.293580974   -0.806029364
   8  H       1.00    3.959209599    1.462738916    1.923080562
   9  H       1.00   -0.954068647   -3.751182034   -0.415891448
  10  H       1.00    2.422215917   -3.867496754   -0.788380686
  11  H       1.00    1.061538066   -3.247469255    2.257705534
  12  H       1.00   -3.756569873    1.042758250   -1.827265338

 Bond lengths in Bohr (Angstrom)

 1-2  2.846476668  1-6  2.088704811  1-7  2.088420481  1-8  2.103746788  2-3  2.847119878
     ( 1.506290578)     ( 1.105294982)     ( 1.105144521)     ( 1.113254854)     ( 1.506630951)

  2- 4  2.625975338   3- 9  2.084830361   3-10  2.087841199   3-11  2.105099134   4- 5  2.786760112
       ( 1.389606300)       ( 1.103244712)       ( 1.104837978)       ( 1.113970485)       ( 1.474689938)

  5-12  1.841980465
       ( 0.974734082)

 Bond angles

  1-2-3  120.37866573   1-2-4  108.90555081   2-1-6  109.98947225   2-1-7  110.73429490

  2- 1- 8  111.55454090   2- 3- 9  111.39391397   2- 3-10  109.81854850   2- 3-11  110.58353672

  2- 4- 5  109.23946113   3- 2- 4  118.03986083   4- 5-12   98.69208121   6- 1- 7  108.91518355

  6- 1- 8  107.73808609   7- 1- 8  107.80970783   9- 3-10  109.08155522   9- 3-11  107.82264068

 10- 3-11  108.05255620

 NUCLEAR CHARGE:                   41
 NUMBER OF PRIMITIVE AOS:         184
 NUMBER OF SYMMETRY AOS:          179
 NUMBER OF CONTRACTIONS:          105   ( 105A   )
 NUMBER OF CORE ORBITALS:           5   (   5A   )
 NUMBER OF VALENCE ORBITALS:       27   (  27A   )


 NUCLEAR REPULSION ENERGY  183.21805584


 Eigenvalues of metric

         1 0.345E-02 0.435E-02 0.105E-01 0.141E-01 0.182E-01 0.214E-01 0.331E-01 0.346E-01


 Contracted 2-electron integrals neglected if value below      1.0D-16
 AO integral compression algorithm  1   Integral accuracy      1.0D-16

     127.664 MB (compressed) written to integral file ( 93.2%)

     Node minimum: 40.632 MB, node maximum: 45.089 MB


 NUMBER OF SORTED TWO-ELECTRON INTEGRALS:    5164320.     BUFFER LENGTH:  32768
 NUMBER OF SEGMENTS:   1  SEGMENT LENGTH:    5164320      RECORD LENGTH: 524288

 Memory used in sort:       5.72 MW

 SORT1 READ    17075332. AND WROTE     5135900. INTEGRALS IN     15 RECORDS. CPU TIME:     0.21 SEC, REAL TIME:     0.24 SEC
 SORT2 READ    15396632. AND WROTE    15487395. INTEGRALS IN    480 RECORDS. CPU TIME:     0.06 SEC, REAL TIME:     0.11 SEC

 Node minimum:     5160610.  Node maximum:     5164320. integrals

 OPERATOR DM      FOR CENTER  0  COORDINATES:    0.000000    0.000000    0.000000


 **********************************************************************************************************************************
 DATASETS  * FILE   NREC   LENGTH (MB)   RECORD NAMES
              1      18        3.17       500      610      700      900      950      970     1000      129      960     1100   
                                          VAR    BASINP    GEOM    SYMINP    ZMAT    AOBASIS   BASIS     P2S    ABASIS      S 
                                         1400     1410     1200     1210     1080     1600     1650     1700   
                                           T        V       H0       H01     AOSYM     SMH    MOLCAS    OPER   

 PROGRAMS   *        TOTAL       INT
 CPU TIMES  *         0.96      0.87
 REAL TIME  *         1.41 SEC
 DISK USED  *       306.48 MB      
 GA USED    *         0.00 MB       (max)       0.00 MB       (current)
 **********************************************************************************************************************************

1PROGRAM * RHF-SCF (OPEN SHELL)       Authors: W. Meyer, H.-J. Werner


 NUMBER OF ELECTRONS:      21+   20-    SPACE SYMMETRY=1    SPIN SYMMETRY: Doublet 
 CONVERGENCE THRESHOLDS:    1.00E-10 (Density)    1.00E-11 (Energy)
 MAX. NUMBER OF ITERATIONS:      200
 INTERPOLATION TYPE:            DIIS
 INTERPOLATION STEPS:              2 (START)      1 (STEP)
 LEVEL SHIFTS:                 -0.30 (CLOSED)  0.00 (OPEN) 



 Orbital guess generated from atomic densities. Full valence occupancy:   32

 Molecular orbital dump at record        2100.2

 ITERATION    DDIFF          GRAD             ENERGY        2-EL.EN.            DIPOLE MOMENTS         DIIS
    1      0.000D+00      0.000D+00      -267.17823665    555.812108    0.56999    0.04990   -0.74939    0
    2      0.000D+00      0.617D-02      -267.24890270    555.732575    0.41411   -0.13073   -0.59875    1
    3      0.927D-02      0.214D-02      -267.26107699    555.650858    0.39394   -0.05880   -0.62603    2
    4      0.336D-02      0.912D-03      -267.26468412    555.802953    0.37940   -0.09895   -0.64238    3
    5      0.186D-02      0.363D-03      -267.26525315    555.774288    0.38197   -0.09245   -0.63533    4
    6      0.792D-03      0.110D-03      -267.26532959    555.760539    0.38024   -0.09225   -0.63806    5
    7      0.277D-03      0.511D-04      -267.26534974    555.757521    0.37953   -0.09199   -0.63755    6
    8      0.144D-03      0.273D-04      -267.26535580    555.755573    0.37981   -0.09210   -0.63776    7
    9      0.925D-04      0.115D-04      -267.26535672    555.755887    0.37999   -0.09206   -0.63752    8
   10      0.366D-04      0.501D-05      -267.26535688    555.756500    0.38025   -0.09207   -0.63758    9
   11      0.147D-04      0.196D-05      -267.26535691    555.756342    0.38030   -0.09207   -0.63759    9
   12      0.651D-05      0.670D-06      -267.26535691    555.756476    0.38032   -0.09207   -0.63759    9
   13      0.227D-05      0.226D-06      -267.26535691    555.756392    0.38032   -0.09207   -0.63758    9
   14      0.632D-06      0.759D-07      -267.26535691    555.756401    0.38033   -0.09207   -0.63758    9
   15      0.193D-06      0.302D-07      -267.26535691    555.756396    0.38033   -0.09207   -0.63758    9
   16      0.828D-07      0.146D-07      -267.26535691    555.756398    0.38033   -0.09207   -0.63758    9
   17      0.377D-07      0.756D-08      -267.26535691    555.756398    0.38033   -0.09207   -0.63758    9
   18      0.224D-07      0.343D-08      -267.26535691    555.756398    0.38033   -0.09207   -0.63758    9
   19      0.115D-07      0.133D-08      -267.26535691    555.756398    0.38033   -0.09207   -0.63758    9
   20      0.444D-08      0.569D-09      -267.26535691    555.756398    0.38033   -0.09207   -0.63758    9
   21      0.166D-08      0.288D-09      -267.26535691    555.756398    0.38033   -0.09207   -0.63758    9
   22      0.759D-09      0.162D-09      -267.26535691    555.756398    0.38033   -0.09207   -0.63758    9
   23      0.448D-09      0.799D-10      -267.26535691    555.756398    0.38033   -0.09207   -0.63758    9
   24      0.265D-09      0.318D-10      -267.26535691    555.756398    0.38033   -0.09207   -0.63758    9
   25      0.936D-10      0.130D-10      -267.26535691    555.756398    0.38033   -0.09207   -0.63758    0

 Final alpha occupancy:  21
 Final beta  occupancy:  20

 !RHF STATE 1.1 Energy               -267.265356908465
 Nuclear energy                       183.21805584
 One-electron energy                 -728.36161184
 Two-electron energy                  277.87819909
 Virial quotient                       -1.00155992
 !RHF STATE 1.1 Dipole moment           0.38032755    -0.09207261    -0.63758331
 Dipole moment /Debye                   0.96663290    -0.23400990    -1.62046899

 Orbital energies:

         1.1          2.1          3.1          4.1          5.1          6.1          7.1          8.1          9.1         10.1
    -20.630428   -20.628831   -11.279261   -11.237901   -11.232243    -1.470115    -1.240632    -1.023208    -0.945309    -0.768416

        11.1         12.1         13.1         14.1         15.1         16.1         17.1         18.1         19.1         20.1
     -0.704538    -0.642964    -0.626747    -0.588826    -0.545023    -0.543300    -0.539043    -0.516899    -0.492961    -0.469833

        21.1         22.1         23.1
     -0.352257     0.181252     0.183549


 **********************************************************************************************************************************
 DATASETS  * FILE   NREC   LENGTH (MB)   RECORD NAMES
              1      18        3.17       500      610      700      900      950      970     1000      129      960     1100   
                                          VAR    BASINP    GEOM    SYMINP    ZMAT    AOBASIS   BASIS     P2S    ABASIS      S 
                                         1400     1410     1200     1210     1080     1600     1650     1700   
                                           T        V       H0       H01     AOSYM     SMH    MOLCAS    OPER   

              2       3        0.77       700     1000     2100   
                                         GEOM     BASIS     RHF  

 PROGRAMS   *        TOTAL       RHF       INT
 CPU TIMES  *         2.06      1.09      0.87
 REAL TIME  *         2.65 SEC
 DISK USED  *       323.05 MB      
 SF USED    *         0.04 MB      
 GA USED    *         0.00 MB       (max)       0.00 MB       (current)
 **********************************************************************************************************************************


1PROGRAM * CCSD (Unrestricted open-shell coupled cluster)     Authors: C. Hampel, H.-J. Werner, 1991, M. Deegan, P.J. Knowles, 1992


 Convergence thresholds:  THRVAR = 1.00D-08  THRDEN = 1.00D-10

 CCSD(T)     terms to be evaluated (factor= 1.000)


 Number of core orbitals:           5 (   5 )
 Number of closed-shell orbitals:  15 (  15 )
 Number of active  orbitals:        1 (   1 )
 Number of external orbitals:      84 (  84 )

 Memory could be reduced to 24.91 Mwords without degradation in triples

 Number of N-1 electron functions:              31
 Number of N-2 electron functions:             465
 Number of singly external CSFs:              2635
 Number of doubly external CSFs:           2537250
 Total number of CSFs:                     2539885

 Molecular orbitals read from record     2100.2  Type=RHF/CANONICAL (state 1.1)

 Integral transformation finished. Total CPU:   0.92 sec, npass=  1  Memory used:  12.63 MW

 Starting RMP2 calculation

 ITER.      SQ.NORM     CORR.ENERGY   TOTAL ENERGY   ENERGY CHANGE        DEN1      VAR(S)    VAR(P)  DIIS     TIME
   1      1.24305545    -0.78640809  -268.05176499    -0.78640809    -0.00305024  0.20D-04  0.11D-02  1  1     1.25
   2      1.24569742    -0.78969757  -268.05505448    -0.00328949    -0.00000474  0.54D-06  0.19D-05  2  2     1.55
   3      1.24576299    -0.78973964  -268.05509655    -0.00004207    -0.00000003  0.16D-07  0.68D-08  3  3     1.88
   4      1.24576394    -0.78973965  -268.05509655    -0.00000000    -0.00000000  0.27D-09  0.38D-10  4  4     2.24
   5      1.24576403    -0.78973968  -268.05509659    -0.00000003    -0.00000000  0.25D-11  0.65D-12  5  5     2.63
   6      1.24576404    -0.78973968  -268.05509659    -0.00000001    -0.00000000  0.28D-13  0.87D-14  6  6     3.03
   7      1.24576404    -0.78973968  -268.05509659     0.00000000    -0.00000000  0.47D-15  0.12D-15  6  1     3.44
   8      1.24576404    -0.78973968  -268.05509659     0.00000000    -0.00000000  0.60D-17  0.13D-17  6  2     3.85

 Norm of t1 vector:      0.03893431      S-energy:    -0.00227184      T1 diagnostic:  0.00055027
 Norm of t2 vector:      0.49421469      P-energy:    -0.78746784
                                         Alpha-Beta:  -0.59344217
                                         Alpha-Alpha: -0.10094355
                                         Beta-Beta:   -0.09308212

 Spin contamination <S**2-Sz**2-Sz>     0.00104033
  Reference energy                   -267.265356908464
  RHF-RMP2 correlation energy          -0.789739684581
 !RHF-RMP2 energy                    -268.055096593045

 Starting UCCSD calculation

 ITER.      SQ.NORM     CORR.ENERGY   TOTAL ENERGY   ENERGY CHANGE        DEN1      VAR(S)    VAR(P)  DIIS     TIME
   1      1.26282864    -0.80907406  -268.07443096    -0.80907406    -0.02515987  0.38D-02  0.59D-02  1  1     9.24
   2      1.29160927    -0.83648724  -268.10184415    -0.02741318    -0.00201175  0.22D-03  0.66D-03  2  2    14.58
   3      1.30155367    -0.84098688  -268.10634379    -0.00449964    -0.00032469  0.19D-03  0.56D-04  3  3    19.98
   4      1.30646794    -0.84246444  -268.10782135    -0.00147756    -0.00007208  0.43D-04  0.14D-04  4  4    25.41
   5      1.30919749    -0.84285254  -268.10820945    -0.00038810    -0.00002367  0.19D-04  0.32D-05  5  5    31.51
   6      1.31113614    -0.84305698  -268.10841389    -0.00020444    -0.00000646  0.42D-05  0.12D-05  6  6    39.33
   7      1.31208512    -0.84311574  -268.10847264    -0.00005876    -0.00000208  0.14D-05  0.37D-06  6  2    47.04
   8      1.31252652    -0.84315841  -268.10851532    -0.00004267    -0.00000065  0.45D-06  0.11D-06  6  1    54.78
   9      1.31271164    -0.84316300  -268.10851990    -0.00000459    -0.00000022  0.15D-06  0.35D-07  6  4    62.62
  10      1.31277482    -0.84316593  -268.10852284    -0.00000293    -0.00000005  0.35D-07  0.95D-08  6  3    70.46
  11      1.31280432    -0.84316467  -268.10852158     0.00000126    -0.00000002  0.13D-07  0.28D-08  6  5    77.42
  12      1.31281469    -0.84316440  -268.10852131     0.00000026    -0.00000000  0.26D-08  0.95D-09  6  6    85.16
  13      1.31281354    -0.84316349  -268.10852040     0.00000092    -0.00000000  0.96D-09  0.28D-09  6  2    92.37
  14      1.31280833    -0.84316264  -268.10851955     0.00000084    -0.00000000  0.21D-09  0.67D-10  6  1    98.82
  15      1.31280426    -0.84316206  -268.10851897     0.00000059    -0.00000000  0.78D-10  0.19D-10  6  4   105.26
  16      1.31280107    -0.84316167  -268.10851858     0.00000038    -0.00000000  0.28D-10  0.63D-11  6  3   111.67
  17      1.31279887    -0.84316143  -268.10851834     0.00000024    -0.00000000  0.10D-10  0.24D-11  6  5   119.59
  18      1.31279797    -0.84316137  -268.10851828     0.00000006    -0.00000000  0.41D-11  0.87D-12  6  6   126.41
  19      1.31279736    -0.84316134  -268.10851825     0.00000003    -0.00000000  0.16D-11  0.37D-12  6  2   132.87
  20      1.31279704    -0.84316133  -268.10851824     0.00000001    -0.00000000  0.60D-12  0.13D-12  6  1   139.33
  21      1.31279688    -0.84316132  -268.10851823     0.00000001    -0.00000000  0.28D-12  0.58D-13  6  4   146.16
  22      1.31279676    -0.84316131  -268.10851822     0.00000001    -0.00000000  0.74D-13  0.21D-13  6  3   153.91
  23      1.31279670    -0.84316131  -268.10851822     0.00000000    -0.00000000  0.21D-13  0.63D-14  6  5   161.71
  24      1.31279669    -0.84316131  -268.10851822    -0.00000000    -0.00000000  0.67D-14  0.22D-14  6  6   169.44
  25      1.31279670    -0.84316131  -268.10851822    -0.00000000    -0.00000000  0.21D-14  0.52D-15  6  2   177.27
  26      1.31279670    -0.84316131  -268.10851822    -0.00000000    -0.00000000  0.77D-15  0.15D-15  6  1   183.99
  27      1.31279671    -0.84316131  -268.10851822    -0.00000000    -0.00000000  0.20D-15  0.62D-16  6  3   190.44
  28      1.31279672    -0.84316131  -268.10851822    -0.00000000    -0.00000000  0.30D-16  0.11D-16  6  4   197.31
  29      1.31279672    -0.84316131  -268.10851822    -0.00000000    -0.00000000  0.70D-17  0.29D-17  6  5   205.21
  30      1.31279672    -0.84316131  -268.10851822    -0.00000000    -0.00000000  0.15D-17  0.54D-18  6  6   213.14
  31      1.31279672    -0.84316131  -268.10851822    -0.00000000    -0.00000000  0.35D-18  0.10D-18  6  2   220.82

 Norm of t1 vector:      0.13871369      S-energy:    -0.00282141      T1 diagnostic:  0.01616887
                                                                       D1 diagnostic:  0.06282349
 Norm of t2 vector:      0.54180738      P-energy:    -0.84033990
                                         Alpha-Beta:  -0.66489581
                                         Alpha-Alpha: -0.09147357
                                         Beta-Beta:   -0.08397052

 Spin contamination <S**2-Sz**2-Sz>     0.00217076

 Memory could be reduced to 28.85 Mwords without degradation in triples
 

 RESULTS
 =======

  Reference energy                   -267.265356908464
  UCCSD singles energy                 -0.002821410602
  UCCSD pair energy                    -0.840339900743
  UCCSD correlation energy             -0.843161311345
  Triples (T) contribution             -0.024978508175
  Total correlation energy             -0.868139819521
 
  RHF-UCCSD energy                   -268.108518219809
  RHF-UCCSD[T] energy                -268.134832812770
  RHF-UCCSD-T energy                 -268.133075109038
 !RHF-UCCSD(T) energy                -268.133496727985

 Program statistics:

 Available memory in ccsd:               999997692
 Min. memory needed in ccsd:               7337057
 Max. memory used in ccsd:                10523002
 Max. memory used in cckext:              10867977 (31 integral passes)
 Max. memory used in cckint:              12633073 ( 1 integral passes)



 **********************************************************************************************************************************
 DATASETS  * FILE   NREC   LENGTH (MB)   RECORD NAMES
              1      18        3.17       500      610      700      900      950      970     1000      129      960     1100   
                                          VAR    BASINP    GEOM    SYMINP    ZMAT    AOBASIS   BASIS     P2S    ABASIS      S 
                                         1400     1410     1200     1210     1080     1600     1650     1700   
                                           T        V       H0       H01     AOSYM     SMH    MOLCAS    OPER   

              2       3        0.77       700     1000     2100   
                                         GEOM     BASIS     RHF  

 PROGRAMS   *        TOTAL  UCCSD(T)       RHF       INT
 CPU TIMES  *       281.82    279.76      1.09      0.87
 REAL TIME  *       295.97 SEC
 DISK USED  *         1.29 GB      
 SF USED    *       553.73 MB      
 GA USED    *         0.00 MB       (max)       0.00 MB       (current)
 **********************************************************************************************************************************

        UCCSD(T)        RHF-SCF 
   -268.13349673   -267.26535691
 **********************************************************************************************************************************
 Variable memory released
