
 Primary working directories    : /tmp/320938.378.gen6.q
 Secondary working directories  : /tmp/320938.378.gen6.q
 Wavefunction directory         : /home/vulcan/mel64643/wfu/
 Main file repository           : /tmp/320938.378.gen6.q/

 ARCHNAME  : Linux/x86_64
 FC        : /opt/intel/compilers_and_libraries_2016.1.150/linux/bin/intel64/ifort
 FCVERSION : 16.0.1
 BLASLIB   : -mkl
 id        : ccgc

 Nodes     nprocs
 n085         3
 Number of processes for MPI-2 version of Molpro:   nprocs(total)=    4   nprocs(compute)=    3   nprocs(helper)=    1
 ga_uses_ma=false, calling ma_init with nominal heap.
 GA-space will be limited to   8.0 MW (determined by -G option)

 Using customized tuning parameters: mindgm=10; mindgv=16; mindgc=4; mindgr=1; noblas=0; mincuda=1000; minvec=7
 default implementation of scratch files=sf  

 ***,Frequencies for min3
 memory,1000,m
 gthresh,energy=1.0d-10,orbital=1.0d-10,oneint=1.0d-16,twoint=1.0d-16,optgrad=1.0d-6,compress=1.0d-13
 geomtyp=xyz
 
  geometry = {
  12
  arbitrary comment
     C    1.776964391707    0.712000627080   -0.047340337089
     C    0.491820899231   -0.060208847683   -0.196493380920
     C    0.450165718438   -1.536501573116    0.101435280963
     O   -0.560664737506    0.727149799908    0.254445684360
     O   -1.837813219353    0.092331888287   -0.120532203113
     H    2.585414221716    0.210995321192   -0.611444291256
     H    1.660650327888    1.742529903334   -0.426553305052
     H    2.095232356386    0.773654998697    1.017640612641
     H   -0.505091869282   -1.982873530093   -0.220060656077
     H    1.281665593514   -2.047517551336   -0.417134764961
     H    0.561595845980   -1.719377193948    1.194763906192
     H   -1.987964637156    0.550906926265   -0.967001832688
  }
 
 basis=cc-pvdz
 {rhf;maxit,200}
 {uccsd(t);maxit,200}

 Variables initialized (661), CPU time= 0.00 sec
 Commands  initialized (458), CPU time= 0.01 sec, 486 directives.
 Default parameters read. Elapsed time= 0.06 sec

 Checking input...
 Passed
1


                                         ***  PROGRAM SYSTEM MOLPRO  ***
                         Copyright, University College Cardiff Consultants Limited, 2008

                                    Version 2010.1 linked May 16 2016 07:17:05


 **********************************************************************************************************************************
 LABEL *   Frequencies for min3                                                          
 Linux-4.4.3/n085(x86_64) 64 bit mpp version                                             DATE: 07-Mar-20          TIME: 03:11:20  
 **********************************************************************************************************************************

 SHA1:             9e8077add272b0f3cad6f7df79ec5211205f459d
 **********************************************************************************************************************************

 THRESHOLDS:

 ZERO    =  1.00D-12  ONEINT  =  1.00D-16  TWOINT  =  1.00D-16  PREFAC  =  1.00D-14  LOCALI  =  1.00D-09  EORDER  =  1.00D-04
 ENERGY  =  1.00D-10  ETEST   =  0.00D+00  EDENS   =  0.00D+00  THRDEDEF=  1.00D-06  GRADIENT=  1.00D-02  STEP    =  1.00D-03
 ORBITAL =  1.00D-10  CIVEC   =  1.00D-05  COEFF   =  1.00D-04  PRINTCI =  5.00D-02  PUNCHCI =  9.90D+01  OPTGRAD =  1.00D-06
 OPTENERG=  1.00D-06  OPTSTEP =  3.00D-04  THRGRAD =  1.00D-10  COMPRESS=  1.00D-13  VARMIN  =  1.00D-07  VARMAX  =  1.00D-03
 THRDOUB =  0.00D+00  THRDIV  =  1.00D-05  THRRED  =  1.00D-07  THRPSP  =  1.00D+00  THRDC   =  1.00D-10  THRCS   =  1.00D-10
 THRNRM  =  1.00D-08  THREQ   =  0.00D+00  THRDE   =  1.00D+00  THRREF  =  1.00D-05  SPARFAC =  1.00D+00  THRDLP  =  1.00D-07
 THRDIA  =  1.00D-10  THRDLS  =  1.00D-07  THRGPS  =  0.00D+00  THRKEX  =  0.00D+00  THRDIS  =  2.00D-01  THRVAR  =  1.00D-10
 THRLOC  =  1.00D-06  THRGAP  =  1.00D-06  THRLOCT = -1.00D+00  THRGAPT = -1.00D+00  THRORB  =  1.00D-06  THRMLTP =  0.00D+00
 THRCPQCI=  1.00D-10  KEXTA   =  0.00D+00  THRCOARS=  0.00D+00  SYMTOL  =  1.00D-06  GRADTOL =  1.00D-06  THROVL  =  1.00D-08
 THRORTH =  1.00D-08  GRID    =  1.00D-06  GRIDMAX =  1.00D-03  DTMAX   =  0.00D+00

 SETTING GEOMTYP        =    XYZ

 Variable memory set to 1000000000 words,  buffer space   230000 words

 SETTING BASIS          =    CC-PVDZ


 Recomputing integrals since basis changed


 Using spherical harmonics

 Library entry C      S cc-pVDZ              selected for orbital group  1
 Library entry C      P cc-pVDZ              selected for orbital group  1
 Library entry C      D cc-pVDZ              selected for orbital group  1
 Library entry O      S cc-pVDZ              selected for orbital group  2
 Library entry O      P cc-pVDZ              selected for orbital group  2
 Library entry O      D cc-pVDZ              selected for orbital group  2
 Library entry H      S cc-pVDZ              selected for orbital group  3
 Library entry H      P cc-pVDZ              selected for orbital group  3

1PROGRAM * SEWARD (Integral evaluation for generally contracted gaussian basis sets)     Author: Roland Lindh, 1990

 Geometry written to block  1 of record 700


 Point group  C1  



 ATOMIC COORDINATES

 NR  ATOM    CHARGE       X              Y              Z

   1  C       6.00    3.357976046    1.345486191   -0.089460272
   2  C       6.00    0.929406805   -0.113778233   -0.371318677
   3  C       6.00    0.850689922   -2.903567174    0.191684901
   4  O       8.00   -1.059502805    1.374113978    0.480832659
   5  O       8.00   -3.472963665    0.174481982   -0.227772854
   6  H       1.00    4.885724815    0.398723372   -1.155462255
   7  H       1.00    3.138174320    3.292904293   -0.806068927
   8  H       1.00    3.959415335    1.461996068    1.923062058
   9  H       1.00   -0.954485304   -3.747087925   -0.415854372
  10  H       1.00    2.421996964   -3.869247421   -0.788270466
  11  H       1.00    1.061262345   -3.249152013    2.257776574
  12  H       1.00   -3.756708723    1.041063215   -1.827368632

 Bond lengths in Bohr (Angstrom)

 1-2  2.847252250  1-6  2.089673746  1-7  2.086690688  1-8  2.103699099  2-3  2.847119898
     ( 1.506700999)     ( 1.105807721)     ( 1.104229155)     ( 1.113229618)     ( 1.506630961)

  2- 4  2.625975356   3- 9  2.083095971   3-10  2.088505849   3-11  2.105351379   4- 5  2.786760130
       ( 1.389606310)       ( 1.102326912)       ( 1.105189696)       ( 1.114103967)       ( 1.474689948)

  5-12  1.841244401
       ( 0.974344573)

 Bond angles

  1-2-3  120.41126878   1-2-4  108.87505563   2-1-6  109.93077703   2-1-7  110.76083279

  2- 1- 8  111.52721524   2- 3- 9  111.28876811   2- 3-10  109.84532216   2- 3-11  110.61782258

  2- 4- 5  109.23946123   3- 2- 4  118.03986089   4- 5-12   98.72910081   6- 1- 7  108.94439120

  6- 1- 8  107.70367930   7- 1- 8  107.87627582   9- 3-10  109.14141701   9- 3-11  107.84352453

 10- 3-11  108.01808043

 NUCLEAR CHARGE:                   41
 NUMBER OF PRIMITIVE AOS:         184
 NUMBER OF SYMMETRY AOS:          179
 NUMBER OF CONTRACTIONS:          105   ( 105A   )
 NUMBER OF CORE ORBITALS:           5   (   5A   )
 NUMBER OF VALENCE ORBITALS:       27   (  27A   )


 NUCLEAR REPULSION ENERGY  183.21833604


 Eigenvalues of metric

         1 0.346E-02 0.435E-02 0.105E-01 0.141E-01 0.182E-01 0.214E-01 0.331E-01 0.346E-01


 Contracted 2-electron integrals neglected if value below      1.0D-16
 AO integral compression algorithm  1   Integral accuracy      1.0D-16

     127.664 MB (compressed) written to integral file ( 93.2%)

     Node minimum: 40.632 MB, node maximum: 43.516 MB


 NUMBER OF SORTED TWO-ELECTRON INTEGRALS:    5164320.     BUFFER LENGTH:  32768
 NUMBER OF SEGMENTS:   1  SEGMENT LENGTH:    5164320      RECORD LENGTH: 524288

 Memory used in sort:       5.72 MW

 SORT1 READ    17075251. AND WROTE     5135901. INTEGRALS IN     15 RECORDS. CPU TIME:     0.20 SEC, REAL TIME:     0.23 SEC
 SORT2 READ    15396607. AND WROTE    15487395. INTEGRALS IN    465 RECORDS. CPU TIME:     0.05 SEC, REAL TIME:     0.10 SEC

 Node minimum:     5160610.  Node maximum:     5164320. integrals

 OPERATOR DM      FOR CENTER  0  COORDINATES:    0.000000    0.000000    0.000000


 **********************************************************************************************************************************
 DATASETS  * FILE   NREC   LENGTH (MB)   RECORD NAMES
              1      18        3.17       500      610      700      900      950      970     1000      129      960     1100   
                                          VAR    BASINP    GEOM    SYMINP    ZMAT    AOBASIS   BASIS     P2S    ABASIS      S 
                                         1400     1410     1200     1210     1080     1600     1650     1700   
                                           T        V       H0       H01     AOSYM     SMH    MOLCAS    OPER   

 PROGRAMS   *        TOTAL       INT
 CPU TIMES  *         0.83      0.77
 REAL TIME  *         1.22 SEC
 DISK USED  *       306.05 MB      
 GA USED    *         0.00 MB       (max)       0.00 MB       (current)
 **********************************************************************************************************************************

1PROGRAM * RHF-SCF (OPEN SHELL)       Authors: W. Meyer, H.-J. Werner


 NUMBER OF ELECTRONS:      21+   20-    SPACE SYMMETRY=1    SPIN SYMMETRY: Doublet 
 CONVERGENCE THRESHOLDS:    1.00E-10 (Density)    1.00E-11 (Energy)
 MAX. NUMBER OF ITERATIONS:      200
 INTERPOLATION TYPE:            DIIS
 INTERPOLATION STEPS:              2 (START)      1 (STEP)
 LEVEL SHIFTS:                 -0.30 (CLOSED)  0.00 (OPEN) 



 Orbital guess generated from atomic densities. Full valence occupancy:   32

 Molecular orbital dump at record        2100.2

 ITERATION    DDIFF          GRAD             ENERGY        2-EL.EN.            DIPOLE MOMENTS         DIIS
    1      0.000D+00      0.000D+00      -267.17825034    555.809827    0.57099    0.04812   -0.74924    0
    2      0.000D+00      0.617D-02      -267.24893014    555.731918    0.41424   -0.13148   -0.59859    1
    3      0.928D-02      0.214D-02      -267.26110760    555.649948    0.39399   -0.05942   -0.62601    2
    4      0.336D-02      0.912D-03      -267.26471599    555.802171    0.37930   -0.09943   -0.64238    3
    5      0.186D-02      0.363D-03      -267.26528501    555.773557    0.38181   -0.09288   -0.63536    4
    6      0.792D-03      0.110D-03      -267.26536144    555.759818    0.38006   -0.09267   -0.63810    5
    7      0.277D-03      0.511D-04      -267.26538159    555.756799    0.37934   -0.09240   -0.63759    6
    8      0.144D-03      0.273D-04      -267.26538765    555.754861    0.37962   -0.09252   -0.63781    7
    9      0.924D-04      0.115D-04      -267.26538857    555.755166    0.37980   -0.09247   -0.63756    8
   10      0.366D-04      0.502D-05      -267.26538873    555.755782    0.38006   -0.09249   -0.63763    9
   11      0.147D-04      0.197D-05      -267.26538876    555.755624    0.38011   -0.09248   -0.63763    9
   12      0.651D-05      0.671D-06      -267.26538876    555.755758    0.38013   -0.09248   -0.63763    9
   13      0.227D-05      0.226D-06      -267.26538876    555.755674    0.38013   -0.09248   -0.63763    9
   14      0.632D-06      0.758D-07      -267.26538876    555.755683    0.38013   -0.09249   -0.63763    9
   15      0.193D-06      0.301D-07      -267.26538876    555.755678    0.38013   -0.09249   -0.63763    9
   16      0.825D-07      0.145D-07      -267.26538876    555.755680    0.38013   -0.09249   -0.63763    9
   17      0.375D-07      0.752D-08      -267.26538876    555.755680    0.38014   -0.09249   -0.63763    9
   18      0.223D-07      0.342D-08      -267.26538876    555.755680    0.38014   -0.09249   -0.63763    9
   19      0.114D-07      0.133D-08      -267.26538876    555.755680    0.38014   -0.09249   -0.63763    9
   20      0.444D-08      0.568D-09      -267.26538876    555.755680    0.38014   -0.09249   -0.63763    9
   21      0.166D-08      0.287D-09      -267.26538876    555.755680    0.38014   -0.09249   -0.63763    9
   22      0.756D-09      0.162D-09      -267.26538876    555.755680    0.38014   -0.09249   -0.63763    9
   23      0.447D-09      0.797D-10      -267.26538876    555.755680    0.38014   -0.09249   -0.63763    9
   24      0.264D-09      0.317D-10      -267.26538876    555.755680    0.38014   -0.09249   -0.63763    9
   25      0.934D-10      0.129D-10      -267.26538876    555.755680    0.38014   -0.09249   -0.63763    0

 Final alpha occupancy:  21
 Final beta  occupancy:  20

 !RHF STATE 1.1 Energy               -267.265388758758
 Nuclear energy                       183.21833604
 One-electron energy                 -728.36156488
 Two-electron energy                  277.87784008
 Virial quotient                       -1.00155539
 !RHF STATE 1.1 Dipole moment           0.38013513    -0.09248581    -0.63762626
 Dipole moment /Debye                   0.96614385    -0.23506009    -1.62057815

 Orbital energies:

         1.1          2.1          3.1          4.1          5.1          6.1          7.1          8.1          9.1         10.1
    -20.630455   -20.628781   -11.279277   -11.237875   -11.232210    -1.470148    -1.240711    -1.023151    -0.945373    -0.768444

        11.1         12.1         13.1         14.1         15.1         16.1         17.1         18.1         19.1         20.1
     -0.704581    -0.643007    -0.626709    -0.588821    -0.545081    -0.543456    -0.538903    -0.517084    -0.492958    -0.469770

        21.1         22.1         23.1
     -0.352293     0.181293     0.183542


 **********************************************************************************************************************************
 DATASETS  * FILE   NREC   LENGTH (MB)   RECORD NAMES
              1      18        3.17       500      610      700      900      950      970     1000      129      960     1100   
                                          VAR    BASINP    GEOM    SYMINP    ZMAT    AOBASIS   BASIS     P2S    ABASIS      S 
                                         1400     1410     1200     1210     1080     1600     1650     1700   
                                           T        V       H0       H01     AOSYM     SMH    MOLCAS    OPER   

              2       3        0.77       700     1000     2100   
                                         GEOM     BASIS     RHF  

 PROGRAMS   *        TOTAL       RHF       INT
 CPU TIMES  *         1.74      0.91      0.77
 REAL TIME  *         2.29 SEC
 DISK USED  *       322.62 MB      
 SF USED    *         0.04 MB      
 GA USED    *         0.00 MB       (max)       0.00 MB       (current)
 **********************************************************************************************************************************


1PROGRAM * CCSD (Unrestricted open-shell coupled cluster)     Authors: C. Hampel, H.-J. Werner, 1991, M. Deegan, P.J. Knowles, 1992


 Convergence thresholds:  THRVAR = 1.00D-08  THRDEN = 1.00D-10

 CCSD(T)     terms to be evaluated (factor= 1.000)


 Number of core orbitals:           5 (   5 )
 Number of closed-shell orbitals:  15 (  15 )
 Number of active  orbitals:        1 (   1 )
 Number of external orbitals:      84 (  84 )

 Memory could be reduced to 24.91 Mwords without degradation in triples

 Number of N-1 electron functions:              31
 Number of N-2 electron functions:             465
 Number of singly external CSFs:              2635
 Number of doubly external CSFs:           2537250
 Total number of CSFs:                     2539885

 Molecular orbitals read from record     2100.2  Type=RHF/CANONICAL (state 1.1)

 Integral transformation finished. Total CPU:   0.70 sec, npass=  1  Memory used:  12.63 MW

 Starting RMP2 calculation

 ITER.      SQ.NORM     CORR.ENERGY   TOTAL ENERGY   ENERGY CHANGE        DEN1      VAR(S)    VAR(P)  DIIS     TIME
   1      1.24303371    -0.78637731  -268.05176607    -0.78637731    -0.00304980  0.20D-04  0.11D-02  1  1     0.97
   2      1.24567516    -0.78966631  -268.05505507    -0.00328900    -0.00000474  0.54D-06  0.19D-05  2  2     1.21
   3      1.24574070    -0.78970837  -268.05509713    -0.00004206    -0.00000003  0.16D-07  0.68D-08  3  3     1.47
   4      1.24574166    -0.78970837  -268.05509713    -0.00000000    -0.00000000  0.27D-09  0.38D-10  4  4     1.75
   5      1.24574174    -0.78970840  -268.05509716    -0.00000003    -0.00000000  0.25D-11  0.65D-12  5  5     2.06
   6      1.24574175    -0.78970841  -268.05509717    -0.00000001    -0.00000000  0.28D-13  0.86D-14  6  6     2.39
   7      1.24574175    -0.78970841  -268.05509717     0.00000000    -0.00000000  0.47D-15  0.12D-15  6  1     2.72
   8      1.24574175    -0.78970841  -268.05509717     0.00000000    -0.00000000  0.59D-17  0.13D-17  6  2     3.05

 Norm of t1 vector:      0.03893113      S-energy:    -0.00227144      T1 diagnostic:  0.00055020
 Norm of t2 vector:      0.49419239      P-energy:    -0.78743697
                                         Alpha-Beta:  -0.59341787
                                         Alpha-Alpha: -0.10094028
                                         Beta-Beta:   -0.09307882

 Spin contamination <S**2-Sz**2-Sz>     0.00104040
  Reference energy                   -267.265388758759
  RHF-RMP2 correlation energy          -0.789708409281
 !RHF-RMP2 energy                    -268.055097168040

 Starting UCCSD calculation

 ITER.      SQ.NORM     CORR.ENERGY   TOTAL ENERGY   ENERGY CHANGE        DEN1      VAR(S)    VAR(P)  DIIS     TIME
   1      1.26280805    -0.80904843  -268.07443719    -0.80904843    -0.02515712  0.38D-02  0.59D-02  1  1     7.79
   2      1.29158388    -0.83645863  -268.10184739    -0.02741020    -0.00201127  0.22D-03  0.66D-03  2  2    12.50
   3      1.30152584    -0.84095703  -268.10634579    -0.00449840    -0.00032467  0.19D-03  0.56D-04  3  3    17.25
   4      1.30643967    -0.84243429  -268.10782305    -0.00147726    -0.00007210  0.43D-04  0.14D-04  4  4    22.02
   5      1.30917000    -0.84282247  -268.10821123    -0.00038818    -0.00002368  0.19D-04  0.32D-05  5  5    26.80
   6      1.31110958    -0.84302698  -268.10841574    -0.00020452    -0.00000646  0.42D-05  0.12D-05  6  6    31.61
   7      1.31205906    -0.84308577  -268.10847453    -0.00005879    -0.00000208  0.14D-05  0.37D-06  6  2    36.44
   8      1.31250067    -0.84312846  -268.10851722    -0.00004269    -0.00000065  0.45D-06  0.11D-06  6  1    41.25
   9      1.31268584    -0.84313304  -268.10852180    -0.00000458    -0.00000022  0.15D-06  0.35D-07  6  4    46.08
  10      1.31274900    -0.84313597  -268.10852473    -0.00000293    -0.00000005  0.35D-07  0.95D-08  6  3    50.90
  11      1.31277850    -0.84313471  -268.10852347     0.00000126    -0.00000002  0.13D-07  0.28D-08  6  5    55.72
  12      1.31278888    -0.84313445  -268.10852321     0.00000026    -0.00000000  0.26D-08  0.95D-09  6  6    60.55
  13      1.31278773    -0.84313353  -268.10852229     0.00000092    -0.00000000  0.96D-09  0.28D-09  6  2    65.39
  14      1.31278253    -0.84313269  -268.10852145     0.00000084    -0.00000000  0.21D-09  0.67D-10  6  1    70.22
  15      1.31277845    -0.84313210  -268.10852086     0.00000059    -0.00000000  0.78D-10  0.19D-10  6  4    75.05
  16      1.31277527    -0.84313172  -268.10852048     0.00000038    -0.00000000  0.28D-10  0.63D-11  6  3    79.91
  17      1.31277307    -0.84313148  -268.10852024     0.00000024    -0.00000000  0.10D-10  0.24D-11  6  5    84.74
  18      1.31277216    -0.84313142  -268.10852018     0.00000006    -0.00000000  0.41D-11  0.87D-12  6  6    89.58
  19      1.31277155    -0.84313139  -268.10852015     0.00000003    -0.00000000  0.16D-11  0.37D-12  6  2    94.43
  20      1.31277123    -0.84313137  -268.10852013     0.00000001    -0.00000000  0.60D-12  0.13D-12  6  1    99.27
  21      1.31277107    -0.84313136  -268.10852012     0.00000001    -0.00000000  0.28D-12  0.58D-13  6  4   104.10
  22      1.31277095    -0.84313136  -268.10852011     0.00000001    -0.00000000  0.74D-13  0.21D-13  6  3   108.94
  23      1.31277089    -0.84313135  -268.10852011     0.00000000    -0.00000000  0.21D-13  0.63D-14  6  5   113.77
  24      1.31277088    -0.84313135  -268.10852011    -0.00000000    -0.00000000  0.67D-14  0.23D-14  6  6   118.63
  25      1.31277089    -0.84313136  -268.10852011    -0.00000000    -0.00000000  0.21D-14  0.52D-15  6  2   123.46
  26      1.31277090    -0.84313136  -268.10852011    -0.00000000    -0.00000000  0.77D-15  0.15D-15  6  1   128.30
  27      1.31277091    -0.84313136  -268.10852012    -0.00000000    -0.00000000  0.20D-15  0.63D-16  6  3   133.13
  28      1.31277091    -0.84313136  -268.10852012    -0.00000000    -0.00000000  0.30D-16  0.11D-16  6  4   137.96
  29      1.31277091    -0.84313136  -268.10852012    -0.00000000    -0.00000000  0.71D-17  0.29D-17  6  5   142.80
  30      1.31277091    -0.84313136  -268.10852012    -0.00000000    -0.00000000  0.15D-17  0.54D-18  6  6   147.64
  31      1.31277091    -0.84313136  -268.10852012    -0.00000000    -0.00000000  0.35D-18  0.10D-18  6  2   152.51

 Norm of t1 vector:      0.13871889      S-energy:    -0.00282109      T1 diagnostic:  0.01616938
                                                                       D1 diagnostic:  0.06282441
 Norm of t2 vector:      0.54178223      P-energy:    -0.84031026
                                         Alpha-Beta:  -0.66486755
                                         Alpha-Alpha: -0.09147292
                                         Beta-Beta:   -0.08396979

 Spin contamination <S**2-Sz**2-Sz>     0.00217170

 Memory could be reduced to 28.85 Mwords without degradation in triples
 

 RESULTS
 =======

  Reference energy                   -267.265388758759
  UCCSD singles energy                 -0.002821094461
  UCCSD pair energy                    -0.840310262658
  UCCSD correlation energy             -0.843131357120
  Triples (T) contribution             -0.024976848183
  Total correlation energy             -0.868108205303
 
  RHF-UCCSD energy                   -268.108520115879
  RHF-UCCSD[T] energy                -268.134832892471
  RHF-UCCSD-T energy                 -268.133075435694
 !RHF-UCCSD(T) energy                -268.133496964062

 Program statistics:

 Available memory in ccsd:               999997692
 Min. memory needed in ccsd:               7337057
 Max. memory used in ccsd:                10523002
 Max. memory used in cckext:              10867977 (31 integral passes)
 Max. memory used in cckint:              12633073 ( 1 integral passes)



 **********************************************************************************************************************************
 DATASETS  * FILE   NREC   LENGTH (MB)   RECORD NAMES
              1      18        3.17       500      610      700      900      950      970     1000      129      960     1100   
                                          VAR    BASINP    GEOM    SYMINP    ZMAT    AOBASIS   BASIS     P2S    ABASIS      S 
                                         1400     1410     1200     1210     1080     1600     1650     1700   
                                           T        V       H0       H01     AOSYM     SMH    MOLCAS    OPER   

              2       3        0.77       700     1000     2100   
                                         GEOM     BASIS     RHF  

 PROGRAMS   *        TOTAL  UCCSD(T)       RHF       INT
 CPU TIMES  *       191.36    189.62      0.91      0.77
 REAL TIME  *       202.35 SEC
 DISK USED  *         1.29 GB      
 SF USED    *       553.73 MB      
 GA USED    *         0.00 MB       (max)       0.00 MB       (current)
 **********************************************************************************************************************************

        UCCSD(T)        RHF-SCF 
   -268.13349696   -267.26538876
 **********************************************************************************************************************************
 Variable memory released
