
 Primary working directories    : /tmp/320938.435.gen6.q
 Secondary working directories  : /tmp/320938.435.gen6.q
 Wavefunction directory         : /home/vulcan/mel64643/wfu/
 Main file repository           : /tmp/320938.435.gen6.q/

 ARCHNAME  : Linux/x86_64
 FC        : /opt/intel/compilers_and_libraries_2016.1.150/linux/bin/intel64/ifort
 FCVERSION : 16.0.1
 BLASLIB   : -mkl
 id        : ccgc

 Nodes     nprocs
 n083         3
 Number of processes for MPI-2 version of Molpro:   nprocs(total)=    4   nprocs(compute)=    3   nprocs(helper)=    1
 ga_uses_ma=false, calling ma_init with nominal heap.
 GA-space will be limited to   8.0 MW (determined by -G option)

 Using customized tuning parameters: mindgm=10; mindgv=16; mindgc=4; mindgr=1; noblas=0; mincuda=1000; minvec=7
 default implementation of scratch files=sf  

 ***,Frequencies for min3
 memory,1000,m
 gthresh,energy=1.0d-10,orbital=1.0d-10,oneint=1.0d-16,twoint=1.0d-16,optgrad=1.0d-6,compress=1.0d-13
 geomtyp=xyz
 
  geometry = {
  12
  arbitrary comment
     C    1.776964391707    0.711398808326   -0.047331391796
     C    0.491811976407   -0.059992870174   -0.195858138425
     C    0.450334595838   -1.536294104051    0.101225781021
     O   -0.560740969492    0.727246358156    0.254257222591
     O   -1.837861720730    0.092262278029   -0.120533731557
     H    2.585291162371    0.211419103145   -0.611997805799
     H    1.660371490085    1.742854286297   -0.427062824643
     H    2.095244961742    0.776072095446    1.017239241538
     H   -0.505190678580   -1.983133954602   -0.220229443708
     H    1.281514219495   -2.048270875330   -0.417618987142
     H    0.561817785826   -1.720053590496    1.194430804781
     H   -1.987472044644    0.551127972490   -0.966711787395
  }
 
 basis=cc-pvdz
 {rhf;maxit,200}
 {uccsd(t);maxit,200}

 Variables initialized (661), CPU time= 0.01 sec
 Commands  initialized (458), CPU time= 0.00 sec, 486 directives.
 Default parameters read. Elapsed time= 0.06 sec

 Checking input...
 Passed
1


                                         ***  PROGRAM SYSTEM MOLPRO  ***
                         Copyright, University College Cardiff Consultants Limited, 2008

                                    Version 2010.1 linked May 16 2016 07:17:05


 **********************************************************************************************************************************
 LABEL *   Frequencies for min3                                                          
 Linux-4.4.3/n083(x86_64) 64 bit mpp version                                             DATE: 07-Mar-20          TIME: 03:31:04  
 **********************************************************************************************************************************

 SHA1:             9e8077add272b0f3cad6f7df79ec5211205f459d
 **********************************************************************************************************************************

 THRESHOLDS:

 ZERO    =  1.00D-12  ONEINT  =  1.00D-16  TWOINT  =  1.00D-16  PREFAC  =  1.00D-14  LOCALI  =  1.00D-09  EORDER  =  1.00D-04
 ENERGY  =  1.00D-10  ETEST   =  0.00D+00  EDENS   =  0.00D+00  THRDEDEF=  1.00D-06  GRADIENT=  1.00D-02  STEP    =  1.00D-03
 ORBITAL =  1.00D-10  CIVEC   =  1.00D-05  COEFF   =  1.00D-04  PRINTCI =  5.00D-02  PUNCHCI =  9.90D+01  OPTGRAD =  1.00D-06
 OPTENERG=  1.00D-06  OPTSTEP =  3.00D-04  THRGRAD =  1.00D-10  COMPRESS=  1.00D-13  VARMIN  =  1.00D-07  VARMAX  =  1.00D-03
 THRDOUB =  0.00D+00  THRDIV  =  1.00D-05  THRRED  =  1.00D-07  THRPSP  =  1.00D+00  THRDC   =  1.00D-10  THRCS   =  1.00D-10
 THRNRM  =  1.00D-08  THREQ   =  0.00D+00  THRDE   =  1.00D+00  THRREF  =  1.00D-05  SPARFAC =  1.00D+00  THRDLP  =  1.00D-07
 THRDIA  =  1.00D-10  THRDLS  =  1.00D-07  THRGPS  =  0.00D+00  THRKEX  =  0.00D+00  THRDIS  =  2.00D-01  THRVAR  =  1.00D-10
 THRLOC  =  1.00D-06  THRGAP  =  1.00D-06  THRLOCT = -1.00D+00  THRGAPT = -1.00D+00  THRORB  =  1.00D-06  THRMLTP =  0.00D+00
 THRCPQCI=  1.00D-10  KEXTA   =  0.00D+00  THRCOARS=  0.00D+00  SYMTOL  =  1.00D-06  GRADTOL =  1.00D-06  THROVL  =  1.00D-08
 THRORTH =  1.00D-08  GRID    =  1.00D-06  GRIDMAX =  1.00D-03  DTMAX   =  0.00D+00

 SETTING GEOMTYP        =    XYZ

 Variable memory set to 1000000000 words,  buffer space   230000 words

 SETTING BASIS          =    CC-PVDZ


 Recomputing integrals since basis changed


 Using spherical harmonics

 Library entry C      S cc-pVDZ              selected for orbital group  1
 Library entry C      P cc-pVDZ              selected for orbital group  1
 Library entry C      D cc-pVDZ              selected for orbital group  1
 Library entry O      S cc-pVDZ              selected for orbital group  2
 Library entry O      P cc-pVDZ              selected for orbital group  2
 Library entry O      D cc-pVDZ              selected for orbital group  2
 Library entry H      S cc-pVDZ              selected for orbital group  3
 Library entry H      P cc-pVDZ              selected for orbital group  3

1PROGRAM * SEWARD (Integral evaluation for generally contracted gaussian basis sets)     Author: Roland Lindh, 1990

 Geometry written to block  1 of record 700


 Point group  C1  



 ATOMIC COORDINATES

 NR  ATOM    CHARGE       X              Y              Z

   1  C       6.00    3.357976046    1.344348918   -0.089443368
   2  C       6.00    0.929389944   -0.113370094   -0.370118242
   3  C       6.00    0.851009054   -2.903175114    0.191289004
   4  O       8.00   -1.059646863    1.374296447    0.480476518
   5  O       8.00   -3.473055320    0.174350438   -0.227775742
   6  H       1.00    4.885492267    0.399524204   -1.156508246
   7  H       1.00    3.137647393    3.293517288   -0.807031779
   8  H       1.00    3.959439156    1.466563719    1.922303577
   9  H       1.00   -0.954672027   -3.747580056   -0.416173335
  10  H       1.00    2.421710908   -3.870670997   -0.789185513
  11  H       1.00    1.061681751   -3.250430217    2.257147104
  12  H       1.00   -3.755777858    1.041480931   -1.826820526

 Bond lengths in Bohr (Angstrom)

 1-2  2.846357946  1-6  2.089168974  1-7  2.088716156  1-8  2.103287926  2-3  2.846811147
     ( 1.506227754)     ( 1.105540607)     ( 1.105300986)     ( 1.113012034)     ( 1.506467577)

  2- 4  2.625439126   3- 9  2.083870045   3-10  2.089134481   3-11  2.105407035   4- 5  2.786760138
       ( 1.389322549)       ( 1.102736534)       ( 1.105522354)       ( 1.114133419)       ( 1.474689952)

  5-12  1.840867064
       ( 0.974144895)

 Bond angles

  1-2-3  120.39278627   1-2-4  108.92100283   2-1-6  109.99063743   2-1-7  110.73454822

  2- 1- 8  111.59641342   2- 3- 9  111.31323123   2- 3-10  109.91232374   2- 3-11  110.63285726

  2- 4- 5  109.25523944   3- 2- 4  118.06926981   4- 5-12   98.68153791   6- 1- 7  108.88601628

  6- 1- 8  107.80175809   7- 1- 8  107.73065823   9- 3-10  109.08731014   9- 3-11  107.81246565

 10- 3-11  107.99239521

 NUCLEAR CHARGE:                   41
 NUMBER OF PRIMITIVE AOS:         184
 NUMBER OF SYMMETRY AOS:          179
 NUMBER OF CONTRACTIONS:          105   ( 105A   )
 NUMBER OF CORE ORBITALS:           5   (   5A   )
 NUMBER OF VALENCE ORBITALS:       27   (  27A   )


 NUCLEAR REPULSION ENERGY  183.22440755


 Eigenvalues of metric

         1 0.345E-02 0.435E-02 0.105E-01 0.141E-01 0.182E-01 0.214E-01 0.331E-01 0.345E-01


 Contracted 2-electron integrals neglected if value below      1.0D-16
 AO integral compression algorithm  1   Integral accuracy      1.0D-16

     127.664 MB (compressed) written to integral file ( 93.2%)

     Node minimum: 31.719 MB, node maximum: 48.759 MB


 NUMBER OF SORTED TWO-ELECTRON INTEGRALS:    5164320.     BUFFER LENGTH:  32768
 NUMBER OF SEGMENTS:   1  SEGMENT LENGTH:    5164320      RECORD LENGTH: 524288

 Memory used in sort:       5.72 MW

 SORT1 READ    17075332. AND WROTE     5135903. INTEGRALS IN     15 RECORDS. CPU TIME:     0.30 SEC, REAL TIME:     0.33 SEC
 SORT2 READ    15396632. AND WROTE    15487395. INTEGRALS IN    363 RECORDS. CPU TIME:     0.08 SEC, REAL TIME:     0.13 SEC

 Node minimum:     5160610.  Node maximum:     5164320. integrals

 OPERATOR DM      FOR CENTER  0  COORDINATES:    0.000000    0.000000    0.000000


 **********************************************************************************************************************************
 DATASETS  * FILE   NREC   LENGTH (MB)   RECORD NAMES
              1      18        3.17       500      610      700      900      950      970     1000      129      960     1100   
                                          VAR    BASINP    GEOM    SYMINP    ZMAT    AOBASIS   BASIS     P2S    ABASIS      S 
                                         1400     1410     1200     1210     1080     1600     1650     1700   
                                           T        V       H0       H01     AOSYM     SMH    MOLCAS    OPER   

 PROGRAMS   *        TOTAL       INT
 CPU TIMES  *         1.04      0.96
 REAL TIME  *         1.42 SEC
 DISK USED  *       314.97 MB      
 GA USED    *         0.00 MB       (max)       0.00 MB       (current)
 **********************************************************************************************************************************

1PROGRAM * RHF-SCF (OPEN SHELL)       Authors: W. Meyer, H.-J. Werner


 NUMBER OF ELECTRONS:      21+   20-    SPACE SYMMETRY=1    SPIN SYMMETRY: Doublet 
 CONVERGENCE THRESHOLDS:    1.00E-10 (Density)    1.00E-11 (Energy)
 MAX. NUMBER OF ITERATIONS:      200
 INTERPOLATION TYPE:            DIIS
 INTERPOLATION STEPS:              2 (START)      1 (STEP)
 LEVEL SHIFTS:                 -0.30 (CLOSED)  0.00 (OPEN) 



 Orbital guess generated from atomic densities. Full valence occupancy:   32

 Molecular orbital dump at record        2100.2

 ITERATION    DDIFF          GRAD             ENERGY        2-EL.EN.            DIPOLE MOMENTS         DIIS
    1      0.000D+00      0.000D+00      -267.17823417    555.821652    0.57050    0.04952   -0.74950    0
    2      0.000D+00      0.617D-02      -267.24890204    555.742001    0.41397   -0.13098   -0.59862    1
    3      0.927D-02      0.214D-02      -267.26108338    555.659926    0.39356   -0.05893   -0.62580    2
    4      0.336D-02      0.912D-03      -267.26469749    555.812209    0.37885   -0.09908   -0.64215    3
    5      0.186D-02      0.364D-03      -267.26526875    555.783551    0.38134   -0.09258   -0.63512    4
    6      0.793D-03      0.110D-03      -267.26534570    555.769796    0.37959   -0.09238   -0.63785    5
    7      0.278D-03      0.513D-04      -267.26536600    555.766784    0.37886   -0.09212   -0.63735    6
    8      0.144D-03      0.273D-04      -267.26537211    555.764833    0.37912   -0.09223   -0.63756    7
    9      0.928D-04      0.115D-04      -267.26537303    555.765154    0.37930   -0.09219   -0.63732    8
   10      0.367D-04      0.502D-05      -267.26537319    555.765765    0.37956   -0.09220   -0.63738    9
   11      0.147D-04      0.197D-05      -267.26537322    555.765606    0.37961   -0.09220   -0.63739    9
   12      0.652D-05      0.672D-06      -267.26537322    555.765741    0.37963   -0.09220   -0.63739    9
   13      0.228D-05      0.227D-06      -267.26537322    555.765656    0.37964   -0.09220   -0.63738    9
   14      0.633D-06      0.761D-07      -267.26537322    555.765665    0.37964   -0.09220   -0.63738    9
   15      0.194D-06      0.303D-07      -267.26537322    555.765661    0.37964   -0.09220   -0.63738    9
   16      0.832D-07      0.146D-07      -267.26537322    555.765662    0.37964   -0.09220   -0.63738    9
   17      0.379D-07      0.759D-08      -267.26537322    555.765662    0.37964   -0.09220   -0.63738    9
   18      0.225D-07      0.344D-08      -267.26537322    555.765662    0.37964   -0.09220   -0.63738    9
   19      0.115D-07      0.134D-08      -267.26537322    555.765662    0.37964   -0.09220   -0.63738    9
   20      0.446D-08      0.572D-09      -267.26537322    555.765662    0.37964   -0.09220   -0.63738    9
   21      0.167D-08      0.289D-09      -267.26537322    555.765662    0.37964   -0.09220   -0.63738    9
   22      0.763D-09      0.163D-09      -267.26537322    555.765662    0.37964   -0.09220   -0.63738    9
   23      0.449D-09      0.802D-10      -267.26537322    555.765662    0.37964   -0.09220   -0.63738    9
   24      0.265D-09      0.319D-10      -267.26537322    555.765662    0.37964   -0.09220   -0.63738    9
   25      0.940D-10      0.130D-10      -267.26537322    555.765662    0.37964   -0.09220   -0.63738    0

 Final alpha occupancy:  21
 Final beta  occupancy:  20

 !RHF STATE 1.1 Energy               -267.265373218687
 Nuclear energy                       183.22440755
 One-electron energy                 -728.37261201
 Two-electron energy                  277.88283124
 Virial quotient                       -1.00155574
 !RHF STATE 1.1 Dipole moment           0.37963901    -0.09219870    -0.63738319
 Dipole moment /Debye                   0.96488291    -0.23433036    -1.61996037

 Orbital energies:

         1.1          2.1          3.1          4.1          5.1          6.1          7.1          8.1          9.1         10.1
    -20.630503   -20.628856   -11.279223   -11.237886   -11.232260    -1.470287    -1.240861    -1.023176    -0.945313    -0.768499

        11.1         12.1         13.1         14.1         15.1         16.1         17.1         18.1         19.1         20.1
     -0.704703    -0.643055    -0.626834    -0.588797    -0.545033    -0.543314    -0.539053    -0.516828    -0.493064    -0.469879

        21.1         22.1         23.1
     -0.352104     0.181270     0.183553


 **********************************************************************************************************************************
 DATASETS  * FILE   NREC   LENGTH (MB)   RECORD NAMES
              1      18        3.17       500      610      700      900      950      970     1000      129      960     1100   
                                          VAR    BASINP    GEOM    SYMINP    ZMAT    AOBASIS   BASIS     P2S    ABASIS      S 
                                         1400     1410     1200     1210     1080     1600     1650     1700   
                                           T        V       H0       H01     AOSYM     SMH    MOLCAS    OPER   

              2       3        0.77       700     1000     2100   
                                         GEOM     BASIS     RHF  

 PROGRAMS   *        TOTAL       RHF       INT
 CPU TIMES  *         2.33      1.29      0.96
 REAL TIME  *         2.85 SEC
 DISK USED  *       331.53 MB      
 SF USED    *         0.04 MB      
 GA USED    *         0.00 MB       (max)       0.00 MB       (current)
 **********************************************************************************************************************************


1PROGRAM * CCSD (Unrestricted open-shell coupled cluster)     Authors: C. Hampel, H.-J. Werner, 1991, M. Deegan, P.J. Knowles, 1992


 Convergence thresholds:  THRVAR = 1.00D-08  THRDEN = 1.00D-10

 CCSD(T)     terms to be evaluated (factor= 1.000)


 Number of core orbitals:           5 (   5 )
 Number of closed-shell orbitals:  15 (  15 )
 Number of active  orbitals:        1 (   1 )
 Number of external orbitals:      84 (  84 )

 Memory could be reduced to 24.91 Mwords without degradation in triples

 Number of N-1 electron functions:              31
 Number of N-2 electron functions:             465
 Number of singly external CSFs:              2635
 Number of doubly external CSFs:           2537250
 Total number of CSFs:                     2539885

 Molecular orbitals read from record     2100.2  Type=RHF/CANONICAL (state 1.1)

 Integral transformation finished. Total CPU:   0.86 sec, npass=  1  Memory used:  12.63 MW

 Starting RMP2 calculation

 ITER.      SQ.NORM     CORR.ENERGY   TOTAL ENERGY   ENERGY CHANGE        DEN1      VAR(S)    VAR(P)  DIIS     TIME
   1      1.24303975    -0.78639304  -268.05176626    -0.78639304    -0.00304979  0.20D-04  0.11D-02  1  1     1.15
   2      1.24568126    -0.78968202  -268.05505524    -0.00328898    -0.00000474  0.54D-06  0.19D-05  2  2     1.41
   3      1.24574682    -0.78972409  -268.05509731    -0.00004207    -0.00000003  0.16D-07  0.68D-08  3  3     1.68
   4      1.24574777    -0.78972409  -268.05509731    -0.00000000    -0.00000000  0.27D-09  0.38D-10  4  4     1.97
   5      1.24574786    -0.78972413  -268.05509734    -0.00000003    -0.00000000  0.25D-11  0.65D-12  5  5     2.28
   6      1.24574787    -0.78972413  -268.05509735    -0.00000001    -0.00000000  0.28D-13  0.86D-14  6  6     2.62
   7      1.24574787    -0.78972413  -268.05509735     0.00000000    -0.00000000  0.47D-15  0.12D-15  6  1     2.96
   8      1.24574787    -0.78972413  -268.05509735     0.00000000    -0.00000000  0.60D-17  0.13D-17  6  2     3.30

 Norm of t1 vector:      0.03895129      S-energy:    -0.00227377      T1 diagnostic:  0.00055022
 Norm of t2 vector:      0.49419699      P-energy:    -0.78745036
                                         Alpha-Beta:  -0.59342580
                                         Alpha-Alpha: -0.10094319
                                         Beta-Beta:   -0.09308137

 Spin contamination <S**2-Sz**2-Sz>     0.00104082
  Reference energy                   -267.265373218684
  RHF-RMP2 correlation energy          -0.789724130577
 !RHF-RMP2 energy                    -268.055097349261

 Starting UCCSD calculation

 ITER.      SQ.NORM     CORR.ENERGY   TOTAL ENERGY   ENERGY CHANGE        DEN1      VAR(S)    VAR(P)  DIIS     TIME
   1      1.26281548    -0.80906382  -268.07443704    -0.80906382    -0.02515689  0.38D-02  0.59D-02  1  1     8.96
   2      1.29159258    -0.83647402  -268.10184723    -0.02741020    -0.00201128  0.22D-03  0.66D-03  2  2    14.63
   3      1.30153547    -0.84097287  -268.10634609    -0.00449885    -0.00032463  0.19D-03  0.56D-04  3  3    20.32
   4      1.30644927    -0.84245016  -268.10782338    -0.00147729    -0.00007208  0.43D-04  0.14D-04  4  4    26.03
   5      1.30917914    -0.84283828  -268.10821150    -0.00038811    -0.00002368  0.19D-04  0.32D-05  5  5    31.73
   6      1.31111846    -0.84304274  -268.10841596    -0.00020447    -0.00000646  0.42D-05  0.12D-05  6  6    37.46
   7      1.31206844    -0.84310156  -268.10847478    -0.00005882    -0.00000208  0.14D-05  0.37D-06  6  2    43.22
   8      1.31251085    -0.84314428  -268.10851750    -0.00004272    -0.00000065  0.45D-06  0.11D-06  6  1    48.99
   9      1.31269683    -0.84314890  -268.10852212    -0.00000462    -0.00000022  0.15D-06  0.35D-07  6  4    54.75
  10      1.31276035    -0.84315184  -268.10852506    -0.00000294    -0.00000005  0.35D-07  0.96D-08  6  3    60.50
  11      1.31279000    -0.84315059  -268.10852380     0.00000125    -0.00000002  0.13D-07  0.28D-08  6  5    66.26
  12      1.31280043    -0.84315033  -268.10852354     0.00000026    -0.00000000  0.26D-08  0.96D-09  6  6    72.03
  13      1.31279929    -0.84314941  -268.10852263     0.00000092    -0.00000000  0.96D-09  0.29D-09  6  2    77.81
  14      1.31279407    -0.84314856  -268.10852178     0.00000085    -0.00000000  0.21D-09  0.68D-10  6  1    83.58
  15      1.31278999    -0.84314797  -268.10852119     0.00000059    -0.00000000  0.78D-10  0.19D-10  6  4    89.35
  16      1.31278680    -0.84314759  -268.10852081     0.00000038    -0.00000000  0.28D-10  0.63D-11  6  3    95.11
  17      1.31278460    -0.84314735  -268.10852057     0.00000024    -0.00000000  0.10D-10  0.24D-11  6  5   100.88
  18      1.31278369    -0.84314729  -268.10852051     0.00000006    -0.00000000  0.41D-11  0.87D-12  6  6   106.64
  19      1.31278308    -0.84314726  -268.10852047     0.00000003    -0.00000000  0.16D-11  0.37D-12  6  2   112.42
  20      1.31278276    -0.84314724  -268.10852046     0.00000001    -0.00000000  0.60D-12  0.13D-12  6  1   118.20
  21      1.31278260    -0.84314723  -268.10852045     0.00000001    -0.00000000  0.28D-12  0.58D-13  6  4   123.53
  22      1.31278247    -0.84314723  -268.10852044     0.00000001    -0.00000000  0.74D-13  0.21D-13  6  3   129.32
  23      1.31278242    -0.84314722  -268.10852044     0.00000000    -0.00000000  0.21D-13  0.63D-14  6  5   135.09
  24      1.31278241    -0.84314722  -268.10852044    -0.00000000    -0.00000000  0.67D-14  0.23D-14  6  6   140.87
  25      1.31278241    -0.84314722  -268.10852044    -0.00000000    -0.00000000  0.21D-14  0.52D-15  6  2   146.66
  26      1.31278242    -0.84314723  -268.10852044    -0.00000000    -0.00000000  0.77D-15  0.15D-15  6  1   152.45
  27      1.31278243    -0.84314723  -268.10852044    -0.00000000    -0.00000000  0.20D-15  0.63D-16  6  3   158.22
  28      1.31278243    -0.84314723  -268.10852044    -0.00000000    -0.00000000  0.30D-16  0.11D-16  6  4   164.00
  29      1.31278244    -0.84314723  -268.10852044    -0.00000000    -0.00000000  0.71D-17  0.29D-17  6  5   169.79
  30      1.31278244    -0.84314723  -268.10852045    -0.00000000    -0.00000000  0.15D-17  0.54D-18  6  6   175.58
  31      1.31278244    -0.84314723  -268.10852045    -0.00000000    -0.00000000  0.35D-18  0.10D-18  6  2   181.36

 Norm of t1 vector:      0.13872940      S-energy:    -0.00282382      T1 diagnostic:  0.01616942
                                                                       D1 diagnostic:  0.06281021
 Norm of t2 vector:      0.54179017      P-energy:    -0.84032340
                                         Alpha-Beta:  -0.66487616
                                         Alpha-Alpha: -0.09147506
                                         Beta-Beta:   -0.08397218

 Spin contamination <S**2-Sz**2-Sz>     0.00217422

 Memory could be reduced to 28.85 Mwords without degradation in triples
 

 RESULTS
 =======

  Reference energy                   -267.265373218684
  UCCSD singles energy                 -0.002823822723
  UCCSD pair energy                    -0.840323403718
  UCCSD correlation energy             -0.843147226441
  Triples (T) contribution             -0.024976570473
  Total correlation energy             -0.868123796915
 
  RHF-UCCSD energy                   -268.108520445125
  RHF-UCCSD[T] energy                -268.134832647781
  RHF-UCCSD-T energy                 -268.133075694047
 !RHF-UCCSD(T) energy                -268.133497015599

 Program statistics:

 Available memory in ccsd:               999997692
 Min. memory needed in ccsd:               7337057
 Max. memory used in ccsd:                10523002
 Max. memory used in cckext:              10867977 (31 integral passes)
 Max. memory used in cckint:              12633073 ( 1 integral passes)



 **********************************************************************************************************************************
 DATASETS  * FILE   NREC   LENGTH (MB)   RECORD NAMES
              1      18        3.17       500      610      700      900      950      970     1000      129      960     1100   
                                          VAR    BASINP    GEOM    SYMINP    ZMAT    AOBASIS   BASIS     P2S    ABASIS      S 
                                         1400     1410     1200     1210     1080     1600     1650     1700   
                                           T        V       H0       H01     AOSYM     SMH    MOLCAS    OPER   

              2       3        0.77       700     1000     2100   
                                         GEOM     BASIS     RHF  

 PROGRAMS   *        TOTAL  UCCSD(T)       RHF       INT
 CPU TIMES  *       223.59    221.26      1.29      0.96
 REAL TIME  *       232.54 SEC
 DISK USED  *         1.30 GB      
 SF USED    *       553.73 MB      
 GA USED    *         0.00 MB       (max)       0.00 MB       (current)
 **********************************************************************************************************************************

        UCCSD(T)        RHF-SCF 
   -268.13349702   -267.26537322
 **********************************************************************************************************************************
 Variable memory released
