
 Primary working directories    : /tmp/320938.693.gen4.q
 Secondary working directories  : /tmp/320938.693.gen4.q
 Wavefunction directory         : /home/vulcan/mel64643/wfu/
 Main file repository           : /tmp/320938.693.gen4.q/

 ARCHNAME  : Linux/x86_64
 FC        : /opt/intel/compilers_and_libraries_2016.1.150/linux/bin/intel64/ifort
 FCVERSION : 16.0.1
 BLASLIB   : -mkl
 id        : ccgc

 Nodes     nprocs
 n037         3
 Number of processes for MPI-2 version of Molpro:   nprocs(total)=    4   nprocs(compute)=    3   nprocs(helper)=    1
 ga_uses_ma=false, calling ma_init with nominal heap.
 GA-space will be limited to   8.0 MW (determined by -G option)

 Using customized tuning parameters: mindgm=10; mindgv=16; mindgc=4; mindgr=1; noblas=0; mincuda=1000; minvec=7
 default implementation of scratch files=sf  

 ***,Frequencies for min3
 memory,1000,m
 gthresh,energy=1.0d-10,orbital=1.0d-10,oneint=1.0d-16,twoint=1.0d-16,optgrad=1.0d-6,compress=1.0d-13
 geomtyp=xyz
 
  geometry = {
  12
  arbitrary comment
     C    1.776964391707    0.711398808326   -0.047331391796
     C    0.491811976407   -0.059992870174   -0.196493901896
     C    0.450332819107   -1.536294019674    0.101417522804
     O   -0.560767745493    0.727234937526    0.254453964104
     O   -1.837840335593    0.092269037726   -0.120531795196
     H    2.585373063107    0.211465914126   -0.611440883996
     H    1.660426393907    1.740618909321   -0.426287842515
     H    2.094810491410    0.774751739634    1.017769813847
     H   -0.504659707459   -1.982438543087   -0.222162867989
     H    1.281578634335   -2.047201564386   -0.416778775993
     H    0.562608661019   -1.717899992381    1.195374897009
     H   -1.988453927870    0.550791541455   -0.966291414632
  }
 
 basis=cc-pvdz
 {rhf;maxit,200}
 {uccsd(t);maxit,200}

 Variables initialized (661), CPU time= 0.00 sec
 Commands  initialized (458), CPU time= 0.01 sec, 486 directives.
 Default parameters read. Elapsed time= 0.07 sec

 Checking input...
 Passed
1


                                         ***  PROGRAM SYSTEM MOLPRO  ***
                         Copyright, University College Cardiff Consultants Limited, 2008

                                    Version 2010.1 linked May 16 2016 07:17:05


 **********************************************************************************************************************************
 LABEL *   Frequencies for min3                                                          
 Linux-4.4.3/n037(x86_64) 64 bit mpp version                                             DATE: 07-Mar-20          TIME: 05:03:05  
 **********************************************************************************************************************************

 SHA1:             9e8077add272b0f3cad6f7df79ec5211205f459d
 **********************************************************************************************************************************

 THRESHOLDS:

 ZERO    =  1.00D-12  ONEINT  =  1.00D-16  TWOINT  =  1.00D-16  PREFAC  =  1.00D-14  LOCALI  =  1.00D-09  EORDER  =  1.00D-04
 ENERGY  =  1.00D-10  ETEST   =  0.00D+00  EDENS   =  0.00D+00  THRDEDEF=  1.00D-06  GRADIENT=  1.00D-02  STEP    =  1.00D-03
 ORBITAL =  1.00D-10  CIVEC   =  1.00D-05  COEFF   =  1.00D-04  PRINTCI =  5.00D-02  PUNCHCI =  9.90D+01  OPTGRAD =  1.00D-06
 OPTENERG=  1.00D-06  OPTSTEP =  3.00D-04  THRGRAD =  1.00D-10  COMPRESS=  1.00D-13  VARMIN  =  1.00D-07  VARMAX  =  1.00D-03
 THRDOUB =  0.00D+00  THRDIV  =  1.00D-05  THRRED  =  1.00D-07  THRPSP  =  1.00D+00  THRDC   =  1.00D-10  THRCS   =  1.00D-10
 THRNRM  =  1.00D-08  THREQ   =  0.00D+00  THRDE   =  1.00D+00  THRREF  =  1.00D-05  SPARFAC =  1.00D+00  THRDLP  =  1.00D-07
 THRDIA  =  1.00D-10  THRDLS  =  1.00D-07  THRGPS  =  0.00D+00  THRKEX  =  0.00D+00  THRDIS  =  2.00D-01  THRVAR  =  1.00D-10
 THRLOC  =  1.00D-06  THRGAP  =  1.00D-06  THRLOCT = -1.00D+00  THRGAPT = -1.00D+00  THRORB  =  1.00D-06  THRMLTP =  0.00D+00
 THRCPQCI=  1.00D-10  KEXTA   =  0.00D+00  THRCOARS=  0.00D+00  SYMTOL  =  1.00D-06  GRADTOL =  1.00D-06  THROVL  =  1.00D-08
 THRORTH =  1.00D-08  GRID    =  1.00D-06  GRIDMAX =  1.00D-03  DTMAX   =  0.00D+00

 SETTING GEOMTYP        =    XYZ

 Variable memory set to 1000000000 words,  buffer space   230000 words

 SETTING BASIS          =    CC-PVDZ


 Recomputing integrals since basis changed


 Using spherical harmonics

 Library entry C      S cc-pVDZ              selected for orbital group  1
 Library entry C      P cc-pVDZ              selected for orbital group  1
 Library entry C      D cc-pVDZ              selected for orbital group  1
 Library entry O      S cc-pVDZ              selected for orbital group  2
 Library entry O      P cc-pVDZ              selected for orbital group  2
 Library entry O      D cc-pVDZ              selected for orbital group  2
 Library entry H      S cc-pVDZ              selected for orbital group  3
 Library entry H      P cc-pVDZ              selected for orbital group  3

1PROGRAM * SEWARD (Integral evaluation for generally contracted gaussian basis sets)     Author: Roland Lindh, 1990

 Geometry written to block  1 of record 700


 Point group  C1  



 ATOMIC COORDINATES

 NR  ATOM    CHARGE       X              Y              Z

   1  C       6.00    3.357976046    1.344348918   -0.089443368
   2  C       6.00    0.929389944   -0.113370094   -0.371319661
   3  C       6.00    0.851005696   -2.903174955    0.191651343
   4  O       8.00   -1.059697462    1.374274865    0.480848305
   5  O       8.00   -3.473014908    0.174363212   -0.227772083
   6  H       1.00    4.885647037    0.399612664   -1.155455816
   7  H       1.00    3.137751146    3.289293038   -0.805567276
   8  H       1.00    3.958618126    1.464068608    1.923306213
   9  H       1.00   -0.953668637   -3.746265919   -0.419826977
  10  H       1.00    2.421832635   -3.868650293   -0.787597744
  11  H       1.00    1.063176288   -3.246360507    2.258931180
  12  H       1.00   -3.757633349    1.040845169   -1.826026137

 Bond lengths in Bohr (Angstrom)

 1-2  2.846476668  1-6  2.088704811  1-7  2.084260081  1-8  2.103868957  2-3  2.847119878
     ( 1.506290578)     ( 1.105294982)     ( 1.102942933)     ( 1.113319503)     ( 1.506630951)

  2- 4  2.625975338   3- 9  2.083640458   3-10  2.087718533   3-11  2.106285500   4- 5  2.786760112
       ( 1.389606300)       ( 1.102615042)       ( 1.104773067)       ( 1.114598282)       ( 1.474689938)

  5-12  1.840167019
       ( 0.973774447)

 Bond angles

  1-2-3  120.37866573   1-2-4  108.90555081   2-1-6  109.98947225   2-1-7  110.71439020

  2- 1- 8  111.55904370   2- 3- 9  111.24124054   2- 3-10  109.85756422   2- 3-11  110.54558470

  2- 4- 5  109.23946113   3- 2- 4  118.03986083   4- 5-12   98.74574623   6- 1- 7  108.90486911

  6- 1- 8  107.76988346   7- 1- 8  107.80451960   9- 3-10  109.08107446   9- 3-11  108.02008682

 10- 3-11  108.01248585

 NUCLEAR CHARGE:                   41
 NUMBER OF PRIMITIVE AOS:         184
 NUMBER OF SYMMETRY AOS:          179
 NUMBER OF CONTRACTIONS:          105   ( 105A   )
 NUMBER OF CORE ORBITALS:           5   (   5A   )
 NUMBER OF VALENCE ORBITALS:       27   (  27A   )


 NUCLEAR REPULSION ENERGY  183.23546379


 Eigenvalues of metric

         1 0.345E-02 0.435E-02 0.105E-01 0.141E-01 0.182E-01 0.214E-01 0.331E-01 0.346E-01


 Contracted 2-electron integrals neglected if value below      1.0D-16
 AO integral compression algorithm  1   Integral accuracy      1.0D-16

     127.664 MB (compressed) written to integral file ( 93.2%)

     Node minimum: 40.370 MB, node maximum: 45.351 MB


 NUMBER OF SORTED TWO-ELECTRON INTEGRALS:    5164320.     BUFFER LENGTH:  32768
 NUMBER OF SEGMENTS:   1  SEGMENT LENGTH:    5164320      RECORD LENGTH: 524288

 Memory used in sort:       5.72 MW

 SORT1 READ    17075710. AND WROTE     5135926. INTEGRALS IN     15 RECORDS. CPU TIME:     0.23 SEC, REAL TIME:     0.28 SEC
 SORT2 READ    15396700. AND WROTE    15487395. INTEGRALS IN    462 RECORDS. CPU TIME:     0.07 SEC, REAL TIME:     0.12 SEC

 Node minimum:     5160610.  Node maximum:     5164320. integrals

 OPERATOR DM      FOR CENTER  0  COORDINATES:    0.000000    0.000000    0.000000


 **********************************************************************************************************************************
 DATASETS  * FILE   NREC   LENGTH (MB)   RECORD NAMES
              1      18        3.17       500      610      700      900      950      970     1000      129      960     1100   
                                          VAR    BASINP    GEOM    SYMINP    ZMAT    AOBASIS   BASIS     P2S    ABASIS      S 
                                         1400     1410     1200     1210     1080     1600     1650     1700   
                                           T        V       H0       H01     AOSYM     SMH    MOLCAS    OPER   

 PROGRAMS   *        TOTAL       INT
 CPU TIMES  *         1.31      1.21
 REAL TIME  *         1.60 SEC
 DISK USED  *       306.75 MB      
 GA USED    *         0.00 MB       (max)       0.00 MB       (current)
 **********************************************************************************************************************************

1PROGRAM * RHF-SCF (OPEN SHELL)       Authors: W. Meyer, H.-J. Werner


 NUMBER OF ELECTRONS:      21+   20-    SPACE SYMMETRY=1    SPIN SYMMETRY: Doublet 
 CONVERGENCE THRESHOLDS:    1.00E-10 (Density)    1.00E-11 (Energy)
 MAX. NUMBER OF ITERATIONS:      200
 INTERPOLATION TYPE:            DIIS
 INTERPOLATION STEPS:              2 (START)      1 (STEP)
 LEVEL SHIFTS:                 -0.30 (CLOSED)  0.00 (OPEN) 



 Orbital guess generated from atomic densities. Full valence occupancy:   32

 Molecular orbital dump at record        2100.2

 ITERATION    DDIFF          GRAD             ENERGY        2-EL.EN.            DIPOLE MOMENTS         DIIS
    1      0.000D+00      0.000D+00      -267.17828883    555.841381    0.57053    0.04886   -0.74856    0
    2      0.000D+00      0.617D-02      -267.24898408    555.763549    0.41443   -0.13091   -0.59879    1
    3      0.928D-02      0.214D-02      -267.26116312    555.681270    0.39408   -0.05873   -0.62626    2
    4      0.336D-02      0.912D-03      -267.26477328    555.833780    0.37944   -0.09871   -0.64280    3
    5      0.186D-02      0.364D-03      -267.26534284    555.805200    0.38194   -0.09215   -0.63582    4
    6      0.792D-03      0.110D-03      -267.26541938    555.791450    0.38019   -0.09193   -0.63858    5
    7      0.277D-03      0.512D-04      -267.26543957    555.788456    0.37947   -0.09166   -0.63808    6
    8      0.144D-03      0.273D-04      -267.26544564    555.786510    0.37974   -0.09177   -0.63830    7
    9      0.925D-04      0.115D-04      -267.26544656    555.786825    0.37992   -0.09173   -0.63805    8
   10      0.366D-04      0.501D-05      -267.26544672    555.787438    0.38018   -0.09174   -0.63812    9
   11      0.147D-04      0.197D-05      -267.26544674    555.787278    0.38023   -0.09174   -0.63812    9
   12      0.651D-05      0.671D-06      -267.26544675    555.787413    0.38025   -0.09174   -0.63812    9
   13      0.228D-05      0.227D-06      -267.26544675    555.787328    0.38025   -0.09174   -0.63812    9
   14      0.633D-06      0.759D-07      -267.26544675    555.787337    0.38025   -0.09174   -0.63812    9
   15      0.193D-06      0.301D-07      -267.26544675    555.787333    0.38025   -0.09174   -0.63812    9
   16      0.828D-07      0.146D-07      -267.26544675    555.787335    0.38025   -0.09174   -0.63812    9
   17      0.377D-07      0.755D-08      -267.26544675    555.787335    0.38025   -0.09174   -0.63812    9
   18      0.224D-07      0.343D-08      -267.26544675    555.787335    0.38025   -0.09174   -0.63812    9
   19      0.115D-07      0.134D-08      -267.26544675    555.787335    0.38025   -0.09174   -0.63812    9
   20      0.445D-08      0.570D-09      -267.26544675    555.787335    0.38025   -0.09174   -0.63812    9
   21      0.166D-08      0.288D-09      -267.26544675    555.787335    0.38025   -0.09174   -0.63812    9
   22      0.758D-09      0.162D-09      -267.26544675    555.787335    0.38025   -0.09174   -0.63812    9
   23      0.448D-09      0.799D-10      -267.26544675    555.787335    0.38025   -0.09174   -0.63812    9
   24      0.264D-09      0.318D-10      -267.26544675    555.787335    0.38025   -0.09174   -0.63812    9
   25      0.936D-10      0.130D-10      -267.26544675    555.787335    0.38025   -0.09174   -0.63812    0

 Final alpha occupancy:  21
 Final beta  occupancy:  20

 !RHF STATE 1.1 Energy               -267.265446747303
 Nuclear energy                       183.23546379
 One-electron energy                 -728.39457797
 Two-electron energy                  277.89366743
 Virial quotient                       -1.00154212
 !RHF STATE 1.1 Dipole moment           0.38025347    -0.09173842    -0.63811585
 Dipole moment /Debye                   0.96644460    -0.23316053    -1.62182249

 Orbital energies:

         1.1          2.1          3.1          4.1          5.1          6.1          7.1          8.1          9.1         10.1
    -20.630486   -20.628753   -11.279214   -11.237643   -11.232214    -1.470212    -1.240837    -1.023270    -0.945453    -0.768486

        11.1         12.1         13.1         14.1         15.1         16.1         17.1         18.1         19.1         20.1
     -0.704689    -0.643054    -0.626720    -0.588905    -0.545225    -0.543521    -0.539020    -0.516999    -0.493003    -0.469784

        21.1         22.1         23.1
     -0.352262     0.181368     0.183554


 **********************************************************************************************************************************
 DATASETS  * FILE   NREC   LENGTH (MB)   RECORD NAMES
              1      18        3.17       500      610      700      900      950      970     1000      129      960     1100   
                                          VAR    BASINP    GEOM    SYMINP    ZMAT    AOBASIS   BASIS     P2S    ABASIS      S 
                                         1400     1410     1200     1210     1080     1600     1650     1700   
                                           T        V       H0       H01     AOSYM     SMH    MOLCAS    OPER   

              2       3        0.77       700     1000     2100   
                                         GEOM     BASIS     RHF  

 PROGRAMS   *        TOTAL       RHF       INT
 CPU TIMES  *         2.75      1.44      1.21
 REAL TIME  *         3.22 SEC
 DISK USED  *       323.32 MB      
 SF USED    *         0.04 MB      
 GA USED    *         0.00 MB       (max)       0.00 MB       (current)
 **********************************************************************************************************************************


1PROGRAM * CCSD (Unrestricted open-shell coupled cluster)     Authors: C. Hampel, H.-J. Werner, 1991, M. Deegan, P.J. Knowles, 1992


 Convergence thresholds:  THRVAR = 1.00D-08  THRDEN = 1.00D-10

 CCSD(T)     terms to be evaluated (factor= 1.000)


 Number of core orbitals:           5 (   5 )
 Number of closed-shell orbitals:  15 (  15 )
 Number of active  orbitals:        1 (   1 )
 Number of external orbitals:      84 (  84 )

 Memory could be reduced to 24.91 Mwords without degradation in triples

 Number of N-1 electron functions:              31
 Number of N-2 electron functions:             465
 Number of singly external CSFs:              2635
 Number of doubly external CSFs:           2537250
 Total number of CSFs:                     2539885

 Molecular orbitals read from record     2100.2  Type=RHF/CANONICAL (state 1.1)

 Integral transformation finished. Total CPU:   1.61 sec, npass=  1  Memory used:  12.63 MW

 Starting RMP2 calculation

 ITER.      SQ.NORM     CORR.ENERGY   TOTAL ENERGY   ENERGY CHANGE        DEN1      VAR(S)    VAR(P)  DIIS     TIME
   1      1.24298282    -0.78632583  -268.05177258    -0.78632583    -0.00304886  0.20D-04  0.11D-02  1  1     2.10
   2      1.24562306    -0.78961379  -268.05506054    -0.00328796    -0.00000474  0.54D-06  0.19D-05  2  2     2.52
   3      1.24568859    -0.78965584  -268.05510259    -0.00004205    -0.00000003  0.16D-07  0.68D-08  3  3     2.97
   4      1.24568954    -0.78965584  -268.05510259    -0.00000000    -0.00000000  0.27D-09  0.38D-10  4  4     3.45
   5      1.24568962    -0.78965587  -268.05510262    -0.00000003    -0.00000000  0.25D-11  0.65D-12  5  5     3.91
   6      1.24568963    -0.78965588  -268.05510263    -0.00000001    -0.00000000  0.28D-13  0.86D-14  6  6     4.37
   7      1.24568963    -0.78965588  -268.05510263     0.00000000    -0.00000000  0.47D-15  0.12D-15  6  1     4.83
   8      1.24568963    -0.78965588  -268.05510263     0.00000000    -0.00000000  0.59D-17  0.13D-17  6  2     5.29

 Norm of t1 vector:      0.03892910      S-energy:    -0.00227134      T1 diagnostic:  0.00055018
 Norm of t2 vector:      0.49413982      P-energy:    -0.78738454
                                         Alpha-Beta:  -0.59337277
                                         Alpha-Alpha: -0.10093701
                                         Beta-Beta:   -0.09307476

 Spin contamination <S**2-Sz**2-Sz>     0.00104036
  Reference energy                   -267.265446747303
  RHF-RMP2 correlation energy          -0.789655878931
 !RHF-RMP2 energy                    -268.055102626234

 Starting UCCSD calculation

 ITER.      SQ.NORM     CORR.ENERGY   TOTAL ENERGY   ENERGY CHANGE        DEN1      VAR(S)    VAR(P)  DIIS     TIME
   1      1.26275556    -0.80900430  -268.07445105    -0.80900430    -0.02515012  0.38D-02  0.59D-02  1  1    12.35
   2      1.29151899    -0.83640724  -268.10185399    -0.02740294    -0.00201009  0.22D-03  0.66D-03  2  2    21.92
   3      1.30145438    -0.84090285  -268.10634959    -0.00449560    -0.00032450  0.19D-03  0.56D-04  3  3    30.26
   4      1.30636537    -0.84237926  -268.10782601    -0.00147642    -0.00007207  0.43D-04  0.14D-04  4  4    38.42
   5      1.30909473    -0.84276731  -268.10821405    -0.00038804    -0.00002366  0.19D-04  0.32D-05  5  5    46.61
   6      1.31103328    -0.84297173  -268.10841847    -0.00020442    -0.00000646  0.42D-05  0.12D-05  6  6    54.82
   7      1.31198218    -0.84303050  -268.10847724    -0.00005877    -0.00000208  0.14D-05  0.37D-06  6  2    63.03
   8      1.31242358    -0.84307316  -268.10851991    -0.00004266    -0.00000065  0.45D-06  0.11D-06  6  1    71.26
   9      1.31260879    -0.84307774  -268.10852449    -0.00000458    -0.00000022  0.15D-06  0.35D-07  6  4    79.50
  10      1.31267201    -0.84308067  -268.10852742    -0.00000293    -0.00000005  0.35D-07  0.95D-08  6  3    87.73
  11      1.31270154    -0.84307941  -268.10852616     0.00000126    -0.00000002  0.13D-07  0.28D-08  6  5    95.93
  12      1.31271193    -0.84307916  -268.10852590     0.00000026    -0.00000000  0.26D-08  0.95D-09  6  6   104.14
  13      1.31271078    -0.84307824  -268.10852499     0.00000092    -0.00000000  0.96D-09  0.28D-09  6  2   112.46
  14      1.31270557    -0.84307739  -268.10852414     0.00000085    -0.00000000  0.21D-09  0.67D-10  6  1   121.08
  15      1.31270149    -0.84307681  -268.10852356     0.00000059    -0.00000000  0.78D-10  0.19D-10  6  4   129.32
  16      1.31269831    -0.84307642  -268.10852317     0.00000038    -0.00000000  0.28D-10  0.63D-11  6  3   137.51
  17      1.31269611    -0.84307619  -268.10852293     0.00000024    -0.00000000  0.10D-10  0.24D-11  6  5   145.73
  18      1.31269521    -0.84307613  -268.10852287     0.00000006    -0.00000000  0.41D-11  0.87D-12  6  6   153.94
  19      1.31269460    -0.84307609  -268.10852284     0.00000003    -0.00000000  0.16D-11  0.37D-12  6  2   162.16
  20      1.31269428    -0.84307608  -268.10852283     0.00000001    -0.00000000  0.60D-12  0.13D-12  6  1   170.39
  21      1.31269412    -0.84307607  -268.10852282     0.00000001    -0.00000000  0.28D-12  0.58D-13  6  4   178.58
  22      1.31269399    -0.84307606  -268.10852281     0.00000001    -0.00000000  0.74D-13  0.21D-13  6  3   186.80
  23      1.31269394    -0.84307606  -268.10852281     0.00000000    -0.00000000  0.21D-13  0.63D-14  6  5   195.02
  24      1.31269393    -0.84307606  -268.10852281    -0.00000000    -0.00000000  0.67D-14  0.22D-14  6  6   203.24
  25      1.31269393    -0.84307606  -268.10852281    -0.00000000    -0.00000000  0.21D-14  0.52D-15  6  2   211.41
  26      1.31269394    -0.84307606  -268.10852281    -0.00000000    -0.00000000  0.77D-15  0.15D-15  6  1   218.21
  27      1.31269395    -0.84307606  -268.10852281    -0.00000000    -0.00000000  0.20D-15  0.62D-16  6  3   225.03
  28      1.31269396    -0.84307606  -268.10852281    -0.00000000    -0.00000000  0.30D-16  0.11D-16  6  4   231.89
  29      1.31269396    -0.84307606  -268.10852281    -0.00000000    -0.00000000  0.71D-17  0.29D-17  6  5   238.74
  30      1.31269396    -0.84307606  -268.10852281    -0.00000000    -0.00000000  0.15D-17  0.54D-18  6  6   245.59
  31      1.31269396    -0.84307606  -268.10852281    -0.00000000    -0.00000000  0.35D-18  0.10D-18  6  2   252.41

 Norm of t1 vector:      0.13869295      S-energy:    -0.00282085      T1 diagnostic:  0.01616609
                                                                       D1 diagnostic:  0.06280570
 Norm of t2 vector:      0.54171785      P-energy:    -0.84025522
                                         Alpha-Beta:  -0.66481133
                                         Alpha-Alpha: -0.09147395
                                         Beta-Beta:   -0.08396994

 Spin contamination <S**2-Sz**2-Sz>     0.00217140

 Memory could be reduced to 28.85 Mwords without degradation in triples
 

 RESULTS
 =======

  Reference energy                   -267.265446747303
  UCCSD singles energy                 -0.002820847461
  UCCSD pair energy                    -0.840255215526
  UCCSD correlation energy             -0.843076062987
  Triples (T) contribution             -0.024970521395
  Total correlation energy             -0.868046584381
 
  RHF-UCCSD energy                   -268.108522810290
  RHF-UCCSD[T] energy                -268.134828537199
  RHF-UCCSD-T energy                 -268.133072085763
 !RHF-UCCSD(T) energy                -268.133493331684

 Program statistics:

 Available memory in ccsd:               999997692
 Min. memory needed in ccsd:               7337057
 Max. memory used in ccsd:                10523002
 Max. memory used in cckext:              10867977 (31 integral passes)
 Max. memory used in cckint:              12633073 ( 1 integral passes)



 **********************************************************************************************************************************
 DATASETS  * FILE   NREC   LENGTH (MB)   RECORD NAMES
              1      18        3.17       500      610      700      900      950      970     1000      129      960     1100   
                                          VAR    BASINP    GEOM    SYMINP    ZMAT    AOBASIS   BASIS     P2S    ABASIS      S 
                                         1400     1410     1200     1210     1080     1600     1650     1700   
                                           T        V       H0       H01     AOSYM     SMH    MOLCAS    OPER   

              2       3        0.77       700     1000     2100   
                                         GEOM     BASIS     RHF  

 PROGRAMS   *        TOTAL  UCCSD(T)       RHF       INT
 CPU TIMES  *       316.27    313.51      1.44      1.21
 REAL TIME  *       329.33 SEC
 DISK USED  *         1.29 GB      
 SF USED    *       553.73 MB      
 GA USED    *         0.00 MB       (max)       0.00 MB       (current)
 **********************************************************************************************************************************

        UCCSD(T)        RHF-SCF 
   -268.13349333   -267.26544675
 **********************************************************************************************************************************
 Variable memory released
