
    -----------------------------------------------------------------------
          Psi4: An Open-Source Ab Initio Electronic Structure Package
                               Psi4 1.4a2.dev478 

                         Git: Rev {master} f722895 dirty


    R. M. Parrish, L. A. Burns, D. G. A. Smith, A. C. Simmonett,
    A. E. DePrince III, E. G. Hohenstein, U. Bozkaya, A. Yu. Sokolov,
    R. Di Remigio, R. M. Richard, J. F. Gonthier, A. M. James,
    H. R. McAlexander, A. Kumar, M. Saitow, X. Wang, B. P. Pritchard,
    P. Verma, H. F. Schaefer III, K. Patkowski, R. A. King, E. F. Valeev,
    F. A. Evangelista, J. M. Turney, T. D. Crawford, and C. D. Sherrill,
    J. Chem. Theory Comput. 13(7) pp 3185--3197 (2017).
    (doi: 10.1021/acs.jctc.7b00174)


                         Additional Contributions by
    P. Kraus, H. Kruse, M. H. Lechner, M. C. Schieber, R. A. Shaw,
    A. Alenaizan, R. Galvelis, Z. L. Glick, S. Lehtola, and J. P. Misiewicz

    -----------------------------------------------------------------------


    Psi4 started on: Monday, 08 June 2020 01:46PM

    Process ID: 21171
    Host:       n063
    PSIDATADIR: /opt/psi/4/master/share/psi4
    Memory:     500.0 MiB
    Threads:    4
    
  ==> Input File <==

--------------------------------------------------------------------------
set memory 40Gb

molecule {
    C   -1.174199517890   -0.774961658783   -0.000122119707
    H   -1.619191780690   -1.211086467183   -0.891051837007
    H   -1.619266333190   -1.211279077683    0.890674642893
    C   -1.174315833390    0.774780790217    0.000039360393
    H   -1.619438560890    1.210840422117    0.890934646993
    H   -1.619393466790    1.211029631617   -0.890785784207
    C    0.352869763910    0.922222842717    0.000099260793
    H    0.838733981110    1.894958531228    0.000209351703
    O    0.767439253606    0.000096099177   -1.027327840292
    C    0.352983514167   -0.922214398821   -0.000074648268
    H    0.838960516772   -1.892289900946   -0.000156415026
    O    0.767367158094   -0.000103667081    1.027382515706
}

set {
    e_convergence 10
    d_convergence 10
    freeze_core True
    basis_guess True
    cc_type conv
    maxiter 300
}

E = energy('mp2/heavy-aug-cc-pV(Q+d)Z')
psi4.print_out("\n========================OPTAVC-XTPL==========================\n\n")
psi4.print_out("MP2/QZ correlation energy {}\n".format(variable("MP2 CORRELATION ENERGY")))
psi4.print_out("SCF/QZ reference energy {}\n".format(variable("CURRENT REFERENCE ENERGY")))
psi4.print_out("\n\n=============================================================\n")

E = energy('mp2/heavy-aug-cc-pV(T+d)Z')
psi4.print_out("\n========================OPTAVC-XTPL==========================\n\n")
psi4.print_out("MP2/TZ correlation energy {}".format(variable("MP2 CORRELATION ENERGY")))
psi4.print_out("\n\n=============================================================\n")
--------------------------------------------------------------------------

Scratch directory: /tmp/

Scratch directory: /tmp/
    SCF Algorithm Type (re)set to DF.

*** tstart() called on n063
*** at Mon Jun  8 13:46:20 2020


  //>>>>>>>>>>>>>>>>>>>>>>>>>>>>>>>>>>>//
  //      Guess SCF, pcseg-0 Basis     //
  //<<<<<<<<<<<<<<<<<<<<<<<<<<<<<<<<<<<//

   => Loading Basis Set <=

    Name: PCSEG-0
    Role: ORBITAL
    Keyword: BASIS
    atoms 1, 4, 7, 10     entry C          line    71 file /opt/psi/4/master/share/psi4/basis/pcseg-0.gbs 
    atoms 2-3, 5-6, 8, 11 entry H          line    13 file /opt/psi/4/master/share/psi4/basis/pcseg-0.gbs 
    atoms 9, 12           entry O          line   103 file /opt/psi/4/master/share/psi4/basis/pcseg-0.gbs 


         ---------------------------------------------------------
                           SCF Castup computation                  
         ---------------------------------------------------------
                                   SCF
               by Justin Turney, Rob Parrish, Andy Simmonett
                          and Daniel G. A. Smith
                              RHF Reference
                        4 Threads,    500 MiB Core
         ---------------------------------------------------------

  ==> Geometry <==

    Molecular point group: c1
    Full point group: C1

    Geometry (in Angstrom), charge = 0, multiplicity = 1:

       Center              X                  Y                   Z               Mass       
    ------------   -----------------  -----------------  -----------------  -----------------
         C           -1.174199517890    -0.774961658783    -0.000122119707    12.000000000000
         H           -1.619191780690    -1.211086467183    -0.891051837007     1.007825032230
         H           -1.619266333190    -1.211279077683     0.890674642893     1.007825032230
         C           -1.174315833390     0.774780790217     0.000039360393    12.000000000000
         H           -1.619438560890     1.210840422117     0.890934646993     1.007825032230
         H           -1.619393466790     1.211029631617    -0.890785784207     1.007825032230
         C            0.352869763910     0.922222842717     0.000099260793    12.000000000000
         H            0.838733981110     1.894958531228     0.000209351703     1.007825032230
         O            0.767439253606     0.000096099177    -1.027327840292    15.994914619570
         C            0.352983514167    -0.922214398821    -0.000074648268    12.000000000000
         H            0.838960516772    -1.892289900946    -0.000156415026     1.007825032230
         O            0.767367158094    -0.000103667081     1.027382515706    15.994914619570

  Running in c1 symmetry.

  Rotational constants: A =      0.19850  B =      0.16229  C =      0.14675 [cm^-1]
  Rotational constants: A =   5950.84880  B =   4865.30163  C =   4399.45760 [MHz]
  Nuclear repulsion =  256.995159181990175

  Charge       = 0
  Multiplicity = 1
  Electrons    = 46
  Nalpha       = 23
  Nbeta        = 23

  ==> Algorithm <==

  SCF Algorithm Type is DF.
  DIIS enabled.
  MOM disabled.
  Fractional occupation disabled.
  Guess Type is SAD.
  Energy threshold   = 1.00e-10
  Density threshold  = 1.00e-10
  Integral threshold = 0.00e+00

  ==> Primary Basis <==

  Basis Set: PCSEG-0
    Blend: PCSEG-0
    Number of shells: 42
    Number of basis function: 66
    Number of Cartesian functions: 66
    Spherical Harmonics?: true
    Max angular momentum: 1

   => Loading Basis Set <=

    Name: (PCSEG-0 AUX)
    Role: JKFIT
    Keyword: DF_BASIS_SCF
    atoms 1, 4, 7, 10     entry C          line   198 file /opt/psi/4/master/share/psi4/basis/def2-universal-jkfit.gbs 
    atoms 2-3, 5-6, 8, 11 entry H          line    18 file /opt/psi/4/master/share/psi4/basis/def2-universal-jkfit.gbs 
    atoms 9, 12           entry O          line   318 file /opt/psi/4/master/share/psi4/basis/def2-universal-jkfit.gbs 

  ==> Integral Setup <==

  ==> DiskDFJK: Density-Fitted J/K Matrices <==

    J tasked:                  Yes
    K tasked:                  Yes
    wK tasked:                  No
    OpenMP threads:              4
    Integrals threads:           4
    Memory [MiB]:              375
    Algorithm:                Core
    Integral Cache:           NONE
    Schwarz Cutoff:          1E-12
    Fitting Condition:       1E-10

   => Auxiliary Basis Set <=

  Basis Set: (PCSEG-0 AUX)
    Blend: DEF2-UNIVERSAL-JKFIT
    Number of shells: 186
    Number of basis function: 562
    Number of Cartesian functions: 662
    Spherical Harmonics?: true
    Max angular momentum: 4

  Minimum eigenvalue in the overlap matrix is 1.2859070466E-03.
  Reciprocal condition number of the overlap matrix is 2.1240880403E-04.
    Using symmetric orthogonalization.

  ==> Pre-Iterations <==

  SCF Guess: Superposition of Atomic Densities via on-the-fly atomic UHF (no occupation information).

   -------------------------
    Irrep   Nso     Nmo    
   -------------------------
     A         66      66 
   -------------------------
    Total      66      66
   -------------------------

  ==> Iterations <==

                           Total Energy        Delta E     RMS |[F,P]|

   @DF-RHF iter SAD:  -303.69481352170021   -3.03695e+02   0.00000e+00 
   @DF-RHF iter   1:  -303.56564108029136    1.29172e-01   7.24253e-03 DIIS
   @DF-RHF iter   2:  -303.66473177151954   -9.90907e-02   3.97107e-03 DIIS
   @DF-RHF iter   3:  -303.69037512584737   -2.56434e-02   6.19758e-04 DIIS
   @DF-RHF iter   4:  -303.69156067122088   -1.18555e-03   1.96542e-04 DIIS
   @DF-RHF iter   5:  -303.69165654661390   -9.58754e-05   4.10937e-05 DIIS
   @DF-RHF iter   6:  -303.69166415747924   -7.61087e-06   8.38688e-06 DIIS
   @DF-RHF iter   7:  -303.69166456126709   -4.03788e-07   1.68636e-06 DIIS
   @DF-RHF iter   8:  -303.69166457536369   -1.40966e-08   5.42007e-07 DIIS
   @DF-RHF iter   9:  -303.69166457677875   -1.41506e-09   1.09434e-07 DIIS
   @DF-RHF iter  10:  -303.69166457685583   -7.70797e-11   1.85783e-08 DIIS
   @DF-RHF iter  11:  -303.69166457685787   -2.04636e-12   2.68951e-09 DIIS
   @DF-RHF iter  12:  -303.69166457685805   -1.70530e-13   4.18642e-10 DIIS
   @DF-RHF iter  13:  -303.69166457685765    3.97904e-13   1.25257e-10 DIIS
   @DF-RHF iter  14:  -303.69166457685776   -1.13687e-13   3.77532e-11 DIIS
  Energy and wave function converged.


  ==> Post-Iterations <==

    Orbital Energies [Eh]
    ---------------------

    Doubly Occupied:                                                      

       1A    -20.584575     2A    -20.584512     3A    -11.369865  
       4A    -11.369626     5A    -11.256148     6A    -11.255751  
       7A     -1.537600     8A     -1.313009     9A     -1.091797  
      10A     -1.008791    11A     -0.821803    12A     -0.790066  
      13A     -0.768003    14A     -0.680713    15A     -0.662958  
      16A     -0.658509    17A     -0.552101    18A     -0.534475  
      19A     -0.527406    20A     -0.524521    21A     -0.519493  
      22A     -0.467054    23A     -0.443211  

    Virtual:                                                              

      24A      0.203023    25A      0.231186    26A      0.236069  
      27A      0.241991    28A      0.253167    29A      0.267285  
      30A      0.314387    31A      0.350243    32A      0.350976  
      33A      0.382124    34A      0.406827    35A      0.464576  
      36A      0.570227    37A      0.796406    38A      0.807567  
      39A      0.820761    40A      0.925420    41A      0.932766  
      42A      0.946952    43A      0.950017    44A      1.003331  
      45A      1.005122    46A      1.030065    47A      1.059992  
      48A      1.071273    49A      1.134149    50A      1.148884  
      51A      1.170419    52A      1.173942    53A      1.210923  
      54A      1.237893    55A      1.424578    56A      1.454753  
      57A      1.482676    58A      1.521989    59A      1.691387  
      60A      1.705343    61A      1.927912    62A      1.950739  
      63A      2.140045    64A      2.299013    65A      2.374949  
      66A      2.441010  

    Final Occupation by Irrep:
              A 
    DOCC [    23 ]

  @DF-RHF Final Energy:  -303.69166457685776

   => Energetics <=

    Nuclear Repulsion Energy =            256.9951591819901751
    One-Electron Energy =                -922.7296739311093461
    Two-Electron Energy =                 362.0428501722614101
    Total Energy =                       -303.6916645768577609

Computation Completed

  //>>>>>>>>>>>>>>>>>>>>>>>>>>>>>>>>>>>//
  //                SCF                //
  //<<<<<<<<<<<<<<<<<<<<<<<<<<<<<<<<<<<//

   => Loading Basis Set <=

    Name: HEAVY-AUG-CC-PV(Q+D)Z
    Role: ORBITAL
    Keyword: BASIS
    atoms 1, 4, 7, 10     entry C          line   333 file /opt/psi/4/master/share/psi4/basis/heavy-aug-cc-pv_qpd_z.gbs 
    atoms 2-3, 5-6, 8, 11 entry H          line    86 file /opt/psi/4/master/share/psi4/basis/heavy-aug-cc-pv_qpd_z.gbs 
    atoms 9, 12           entry O          line   453 file /opt/psi/4/master/share/psi4/basis/heavy-aug-cc-pv_qpd_z.gbs 


         ---------------------------------------------------------
                                   SCF
               by Justin Turney, Rob Parrish, Andy Simmonett
                          and Daniel G. A. Smith
                              RHF Reference
                        4 Threads,    500 MiB Core
         ---------------------------------------------------------

  ==> Geometry <==

    Molecular point group: c1
    Full point group: C1

    Geometry (in Angstrom), charge = 0, multiplicity = 1:

       Center              X                  Y                   Z               Mass       
    ------------   -----------------  -----------------  -----------------  -----------------
         C           -1.174199517890    -0.774961658783    -0.000122119707    12.000000000000
         H           -1.619191780690    -1.211086467183    -0.891051837007     1.007825032230
         H           -1.619266333190    -1.211279077683     0.890674642893     1.007825032230
         C           -1.174315833390     0.774780790217     0.000039360393    12.000000000000
         H           -1.619438560890     1.210840422117     0.890934646993     1.007825032230
         H           -1.619393466790     1.211029631617    -0.890785784207     1.007825032230
         C            0.352869763910     0.922222842717     0.000099260793    12.000000000000
         H            0.838733981110     1.894958531228     0.000209351703     1.007825032230
         O            0.767439253606     0.000096099177    -1.027327840292    15.994914619570
         C            0.352983514167    -0.922214398821    -0.000074648268    12.000000000000
         H            0.838960516772    -1.892289900946    -0.000156415026     1.007825032230
         O            0.767367158094    -0.000103667081     1.027382515706    15.994914619570

  Running in c1 symmetry.

  Rotational constants: A =      0.19850  B =      0.16229  C =      0.14675 [cm^-1]
  Rotational constants: A =   5950.84880  B =   4865.30163  C =   4399.45760 [MHz]
  Nuclear repulsion =  256.995159181990175

  Charge       = 0
  Multiplicity = 1
  Electrons    = 46
  Nalpha       = 23
  Nbeta        = 23

  ==> Algorithm <==

  SCF Algorithm Type is DF.
  DIIS enabled.
  MOM disabled.
  Fractional occupation disabled.
  Guess Type is SAD.
  Energy threshold   = 1.00e-10
  Density threshold  = 1.00e-10
  Integral threshold = 0.00e+00

  ==> Primary Basis <==

  Basis Set: HEAVY-AUG-CC-PV(Q+D)Z
    Blend: HEAVY-AUG-CC-PV(Q+D)Z
    Number of shells: 180
    Number of basis function: 660
    Number of Cartesian functions: 840
    Spherical Harmonics?: true
    Max angular momentum: 4

   => Loading Basis Set <=

    Name: (HEAVY-AUG-CC-PV(Q+D)Z AUX)
    Role: JKFIT
    Keyword: DF_BASIS_SCF
    atoms 1, 4, 7, 10     entry C          line   214 file /opt/psi/4/master/share/psi4/basis/heavy-aug-cc-pvqz-jkfit.gbs 
    atoms 2-3, 5-6, 8, 11 entry H          line   116 file /opt/psi/4/master/share/psi4/basis/heavy-aug-cc-pvqz-jkfit.gbs 
    atoms 9, 12           entry O          line   354 file /opt/psi/4/master/share/psi4/basis/heavy-aug-cc-pvqz-jkfit.gbs 


  Computing basis projection from PCSEG-0 to HEAVY-AUG-CC-PV(Q+D)Z

  ==> Integral Setup <==

  ==> DiskDFJK: Density-Fitted J/K Matrices <==

    J tasked:                  Yes
    K tasked:                  Yes
    wK tasked:                  No
    OpenMP threads:              4
    Integrals threads:           4
    Memory [MiB]:              375
    Algorithm:                Disk
    Integral Cache:           NONE
    Schwarz Cutoff:          1E-12
    Fitting Condition:       1E-10

   => Auxiliary Basis Set <=

  Basis Set: (HEAVY-AUG-CC-PV(Q+D)Z AUX)
    Blend: HEAVY-AUG-CC-PVQZ-JKFIT
    Number of shells: 282
    Number of basis function: 1158
    Number of Cartesian functions: 1584
    Spherical Harmonics?: true
    Max angular momentum: 5

  Minimum eigenvalue in the overlap matrix is 1.0910899003E-06.
  Reciprocal condition number of the overlap matrix is 6.9971802321E-08.
    Using symmetric orthogonalization.

  ==> Pre-Iterations <==

  SCF Guess: Orbitals guess was supplied from a previous computation.

   -------------------------
    Irrep   Nso     Nmo    
   -------------------------
     A        660     660 
   -------------------------
    Total     660     660
   -------------------------

  ==> Iterations <==

                           Total Energy        Delta E     RMS |[F,P]|

   @DF-RHF iter   0:  -304.22235164315123   -3.04222e+02   4.48090e-03 
   @DF-RHF iter   1:  -304.73367770569951   -5.11326e-01   3.36622e-04 DIIS
   @DF-RHF iter   2:  -304.74971042188156   -1.60327e-02   1.53734e-04 DIIS
   @DF-RHF iter   3:  -304.75358646810304   -3.87605e-03   2.81280e-05 DIIS
   @DF-RHF iter   4:  -304.75386361018911   -2.77142e-04   8.46076e-06 DIIS
   @DF-RHF iter   5:  -304.75388590637255   -2.22962e-05   3.57840e-06 DIIS
   @DF-RHF iter   6:  -304.75388971399212   -3.80762e-06   8.40693e-07 DIIS
   @DF-RHF iter   7:  -304.75389002291894   -3.08927e-07   1.79380e-07 DIIS
   @DF-RHF iter   8:  -304.75389003797534   -1.50564e-08   4.57373e-08 DIIS
   @DF-RHF iter   9:  -304.75389003906730   -1.09196e-09   1.49007e-08 DIIS
   @DF-RHF iter  10:  -304.75389003915450   -8.71978e-11   3.82372e-09 DIIS
   @DF-RHF iter  11:  -304.75389003916234   -7.84439e-12   9.81186e-10 DIIS
   @DF-RHF iter  12:  -304.75389003916223    1.13687e-13   2.82378e-10 DIIS
   @DF-RHF iter  13:  -304.75389003916325   -1.02318e-12   4.64117e-11 DIIS
  Energy and wave function converged.


  ==> Post-Iterations <==

    Orbital Energies [Eh]
    ---------------------

    Doubly Occupied:                                                      

       1A    -20.565235     2A    -20.565198     3A    -11.348806  
       4A    -11.348549     5A    -11.236617     6A    -11.236049  
       7A     -1.490876     8A     -1.292261     9A     -1.067425  
      10A     -0.987797    11A     -0.810190    12A     -0.789408  
      13A     -0.746331    14A     -0.672496    15A     -0.651332  
      16A     -0.646552    17A     -0.534130    18A     -0.524601  
      19A     -0.519515    20A     -0.512144    21A     -0.510117  
      22A     -0.459760    23A     -0.433664  

    Virtual:                                                              

      24A      0.041407    25A      0.042862    26A      0.050669  
      27A      0.062622    28A      0.063925    29A      0.079820  
      30A      0.080142    31A      0.083438    32A      0.101424  
      33A      0.110250    34A      0.111674    35A      0.112245  
      36A      0.139349    37A      0.151666    38A      0.166296  
      39A      0.171436    40A      0.178459    41A      0.178824  
      42A      0.188825    43A      0.188968    44A      0.199058  
      45A      0.207265    46A      0.226471    47A      0.227196  
      48A      0.229643    49A      0.257267    50A      0.260913  
      51A      0.270306    52A      0.270853    53A      0.271804  
      54A      0.286588    55A      0.288135    56A      0.291052  
      57A      0.301024    58A      0.316661    59A      0.320014  
      60A      0.325040    61A      0.333735    62A      0.337628  
      63A      0.355683    64A      0.358087    65A      0.369558  
      66A      0.380975    67A      0.388149    68A      0.389583  
      69A      0.391543    70A      0.391723    71A      0.395727  
      72A      0.398875    73A      0.412349    74A      0.420386  
      75A      0.420640    76A      0.440304    77A      0.453036  
      78A      0.456232    79A      0.462743    80A      0.495065  
      81A      0.515270    82A      0.518586    83A      0.522841  
      84A      0.528477    85A      0.550613    86A      0.571834  
      87A      0.574267    88A      0.585214    89A      0.589224  
      90A      0.598563    91A      0.600135    92A      0.613234  
      93A      0.629105    94A      0.641310    95A      0.653737  
      96A      0.659994    97A      0.684928    98A      0.688949  
      99A      0.695818   100A      0.704766   101A      0.715968  
     102A      0.716691   103A      0.732366   104A      0.743536  
     105A      0.757783   106A      0.764557   107A      0.790003  
     108A      0.790370   109A      0.794288   110A      0.795415  
     111A      0.827264   112A      0.832103   113A      0.833124  
     114A      0.849235   115A      0.860835   116A      0.875690  
     117A      0.884367   118A      0.897013   119A      0.920063  
     120A      0.938723   121A      0.947574   122A      0.957862  
     123A      0.961122   124A      0.988518   125A      1.002264  
     126A      1.010177   127A      1.011288   128A      1.015976  
     129A      1.034047   130A      1.035448   131A      1.046750  
     132A      1.062544   133A      1.070057   134A      1.075460  
     135A      1.096342   136A      1.114783   137A      1.128845  
     138A      1.140272   139A      1.155018   140A      1.159120  
     141A      1.160239   142A      1.166415   143A      1.168837  
     144A      1.175971   145A      1.191096   146A      1.198088  
     147A      1.208941   148A      1.221949   149A      1.229401  
     150A      1.234561   151A      1.238490   152A      1.239429  
     153A      1.244991   154A      1.276251   155A      1.276811  
     156A      1.287870   157A      1.288051   158A      1.306396  
     159A      1.314769   160A      1.327801   161A      1.370764  
     162A      1.371315   163A      1.407981   164A      1.408990  
     165A      1.437090   166A      1.442672   167A      1.458911  
     168A      1.469645   169A      1.474916   170A      1.485586  
     171A      1.491173   172A      1.508457   173A      1.525310  
     174A      1.534599   175A      1.543991   176A      1.593307  
     177A      1.593978   178A      1.618320   179A      1.620254  
     180A      1.625540   181A      1.626561   182A      1.647863  
     183A      1.682850   184A      1.687366   185A      1.699079  
     186A      1.723631   187A      1.728458   188A      1.731032  
     189A      1.757430   190A      1.775782   191A      1.776276  
     192A      1.815012   193A      1.865779   194A      1.870736  
     195A      1.885898   196A      1.901046   197A      1.911990  
     198A      1.923956   199A      1.960954   200A      1.968335  
     201A      1.996936   202A      1.997127   203A      2.017987  
     204A      2.026435   205A      2.026585   206A      2.028330  
     207A      2.032876   208A      2.039842   209A      2.044055  
     210A      2.106762   211A      2.116346   212A      2.125199  
     213A      2.142030   214A      2.143306   215A      2.173983  
     216A      2.187907   217A      2.188307   218A      2.209228  
     219A      2.249162   220A      2.258559   221A      2.265919  
     222A      2.293589   223A      2.293703   224A      2.306367  
     225A      2.335455   226A      2.341528   227A      2.359119  
     228A      2.363288   229A      2.366651   230A      2.373319  
     231A      2.389383   232A      2.395765   233A      2.403064  
     234A      2.418688   235A      2.441418   236A      2.442433  
     237A      2.462704   238A      2.485310   239A      2.492384  
     240A      2.517465   241A      2.526123   242A      2.533150  
     243A      2.548473   244A      2.559680   245A      2.584198  
     246A      2.587482   247A      2.620947   248A      2.626280  
     249A      2.633825   250A      2.645062   251A      2.660539  
     252A      2.682299   253A      2.705835   254A      2.713958  
     255A      2.729153   256A      2.730810   257A      2.751196  
     258A      2.763335   259A      2.763759   260A      2.801355  
     261A      2.803302   262A      2.811775   263A      2.831923  
     264A      2.858039   265A      2.866337   266A      2.918883  
     267A      2.935301   268A      2.940965   269A      2.966555  
     270A      2.974595   271A      2.986933   272A      2.987018  
     273A      3.009011   274A      3.031512   275A      3.040256  
     276A      3.048534   277A      3.074802   278A      3.076400  
     279A      3.083631   280A      3.103995   281A      3.109393  
     282A      3.136414   283A      3.142745   284A      3.153380  
     285A      3.169747   286A      3.187239   287A      3.222912  
     288A      3.247920   289A      3.259441   290A      3.267806  
     291A      3.288235   292A      3.292372   293A      3.320436  
     294A      3.362736   295A      3.366529   296A      3.394734  
     297A      3.398166   298A      3.402378   299A      3.431529  
     300A      3.452665   301A      3.464313   302A      3.474235  
     303A      3.501730   304A      3.523695   305A      3.535864  
     306A      3.549070   307A      3.571784   308A      3.597712  
     309A      3.609860   310A      3.617790   311A      3.635471  
     312A      3.661054   313A      3.689995   314A      3.705597  
     315A      3.716617   316A      3.746645   317A      3.752431  
     318A      3.756696   319A      3.805419   320A      3.834175  
     321A      3.842966   322A      3.843645   323A      3.872918  
     324A      3.908199   325A      3.908613   326A      3.917174  
     327A      3.949807   328A      3.962652   329A      3.981998  
     330A      4.040046   331A      4.041356   332A      4.048060  
     333A      4.061000   334A      4.084956   335A      4.099208  
     336A      4.119997   337A      4.134623   338A      4.156558  
     339A      4.173049   340A      4.201838   341A      4.205368  
     342A      4.217727   343A      4.237940   344A      4.244807  
     345A      4.273243   346A      4.292708   347A      4.317323  
     348A      4.330993   349A      4.336474   350A      4.357115  
     351A      4.406047   352A      4.426445   353A      4.439270  
     354A      4.451847   355A      4.459502   356A      4.489174  
     357A      4.497462   358A      4.512062   359A      4.517390  
     360A      4.540844   361A      4.568869   362A      4.593944  
     363A      4.627086   364A      4.652526   365A      4.669150  
     366A      4.691598   367A      4.695630   368A      4.698176  
     369A      4.718017   370A      4.736482   371A      4.749825  
     372A      4.761373   373A      4.787828   374A      4.823546  
     375A      4.823606   376A      4.826379   377A      4.844112  
     378A      4.846203   379A      4.900840   380A      4.942135  
     381A      4.976136   382A      5.000395   383A      5.000474  
     384A      5.020925   385A      5.058959   386A      5.122565  
     387A      5.154579   388A      5.163315   389A      5.182213  
     390A      5.236990   391A      5.244981   392A      5.252988  
     393A      5.277069   394A      5.289254   395A      5.304551  
     396A      5.341315   397A      5.357144   398A      5.374269  
     399A      5.407502   400A      5.488185   401A      5.512064  
     402A      5.555355   403A      5.582471   404A      5.626868  
     405A      5.647584   406A      5.649015   407A      5.669345  
     408A      5.782045   409A      5.822061   410A      5.828136  
     411A      5.837802   412A      5.897540   413A      5.973085  
     414A      6.030593   415A      6.102430   416A      6.137156  
     417A      6.192901   418A      6.214086   419A      6.227745  
     420A      6.235892   421A      6.292678   422A      6.335287  
     423A      6.338292   424A      6.345434   425A      6.366365  
     426A      6.397622   427A      6.417056   428A      6.458728  
     429A      6.490511   430A      6.495510   431A      6.511264  
     432A      6.520302   433A      6.530187   434A      6.576775  
     435A      6.585884   436A      6.611273   437A      6.638064  
     438A      6.643272   439A      6.656186   440A      6.679817  
     441A      6.699757   442A      6.700315   443A      6.716973  
     444A      6.747539   445A      6.764585   446A      6.782152  
     447A      6.813931   448A      6.819885   449A      6.854731  
     450A      6.885139   451A      6.913114   452A      6.913870  
     453A      6.921271   454A      6.925515   455A      6.937440  
     456A      6.976510   457A      6.988885   458A      7.009810  
     459A      7.037873   460A      7.092670   461A      7.101192  
     462A      7.104446   463A      7.133378   464A      7.151800  
     465A      7.178054   466A      7.193898   467A      7.196282  
     468A      7.218613   469A      7.222060   470A      7.248237  
     471A      7.275634   472A      7.303985   473A      7.353674  
     474A      7.358612   475A      7.366698   476A      7.417874  
     477A      7.429633   478A      7.436091   479A      7.468881  
     480A      7.528388   481A      7.540943   482A      7.583870  
     483A      7.599945   484A      7.603314   485A      7.635113  
     486A      7.707123   487A      7.730568   488A      7.740635  
     489A      7.750453   490A      7.782386   491A      7.801895  
     492A      7.832492   493A      7.840288   494A      7.842768  
     495A      7.917470   496A      7.936470   497A      7.942928  
     498A      7.985520   499A      7.995928   500A      8.013357  
     501A      8.015204   502A      8.042641   503A      8.084244  
     504A      8.104556   505A      8.145153   506A      8.154486  
     507A      8.190412   508A      8.192145   509A      8.322271  
     510A      8.325978   511A      8.335293   512A      8.351021  
     513A      8.378311   514A      8.407973   515A      8.412716  
     516A      8.476878   517A      8.494531   518A      8.496832  
     519A      8.531325   520A      8.551746   521A      8.555543  
     522A      8.585514   523A      8.608873   524A      8.611417  
     525A      8.647814   526A      8.685830   527A      8.706875  
     528A      8.714633   529A      8.761791   530A      8.812025  
     531A      8.824280   532A      8.836688   533A      8.840395  
     534A      8.840889   535A      8.879386   536A      8.899800  
     537A      8.902724   538A      8.935778   539A      8.956714  
     540A      8.992985   541A      9.014922   542A      9.026528  
     543A      9.033690   544A      9.047552   545A      9.054690  
     546A      9.084469   547A      9.108797   548A      9.116297  
     549A      9.171098   550A      9.176415   551A      9.188820  
     552A      9.233445   553A      9.248384   554A      9.314551  
     555A      9.341480   556A      9.350837   557A      9.351131  
     558A      9.366138   559A      9.400601   560A      9.452045  
     561A      9.497151   562A      9.512387   563A      9.525613  
     564A      9.556751   565A      9.648511   566A      9.657933  
     567A      9.726572   568A      9.754352   569A      9.768074  
     570A      9.789077   571A      9.834278   572A      9.898849  
     573A      9.918621   574A      9.927477   575A      9.959274  
     576A     10.066352   577A     10.116215   578A     10.232997  
     579A     10.239040   580A     10.254445   581A     10.293171  
     582A     10.414839   583A     10.477387   584A     10.501166  
     585A     10.506244   586A     10.586573   587A     10.627076  
     588A     10.637287   589A     10.776418   590A     10.793730  
     591A     10.823070   592A     10.826076   593A     10.971297  
     594A     11.001248   595A     11.063356   596A     11.070044  
     597A     11.100681   598A     11.101608   599A     11.130336  
     600A     11.152513   601A     11.161878   602A     11.209254  
     603A     11.224717   604A     11.251610   605A     11.334002  
     606A     11.380684   607A     11.451121   608A     11.455034  
     609A     11.493905   610A     11.498193   611A     11.507546  
     612A     11.542117   613A     11.618321   614A     11.644623  
     615A     11.721675   616A     11.813592   617A     11.819482  
     618A     11.847369   619A     11.886129   620A     11.907221  
     621A     12.198655   622A     12.253238   623A     12.316076  
     624A     12.378426   625A     12.639208   626A     12.651051  
     627A     12.825094   628A     12.870042   629A     12.962675  
     630A     13.028212   631A     13.075342   632A     13.076134  
     633A     13.182757   634A     13.239231   635A     13.255019  
     636A     13.352376   637A     13.357564   638A     13.385788  
     639A     13.420383   640A     13.512112   641A     13.519177  
     642A     13.532307   643A     13.717246   644A     13.736444  
     645A     13.789198   646A     13.813352   647A     13.844732  
     648A     13.907804   649A     13.968615   650A     13.979387  
     651A     14.122066   652A     14.154985   653A     14.690256  
     654A     14.882668   655A     27.248264   656A     27.842545  
     657A     28.043610   658A     28.610144   659A     44.796692  
     660A     45.695267  

    Final Occupation by Irrep:
              A 
    DOCC [    23 ]

  @DF-RHF Final Energy:  -304.75389003916325

   => Energetics <=

    Nuclear Repulsion Energy =            256.9951591819901751
    One-Electron Energy =                -925.5999926771580704
    Two-Electron Energy =                 363.8509434560046429
    Total Energy =                       -304.7538900391632524

Computation Completed


Properties will be evaluated at   0.000000,   0.000000,   0.000000 [a0]

Properties computed using the SCF density matrix

  Nuclear Dipole Moment: [e a0]
     X:    -4.4921      Y:     0.0020      Z:    -0.0002

  Electronic Dipole Moment: [e a0]
     X:     3.7201      Y:    -0.0025      Z:     0.0001

  Dipole Moment: [e a0]
     X:    -0.7720      Y:    -0.0005      Z:    -0.0000     Total:     0.7720

  Dipole Moment: [D]
     X:    -1.9623      Y:    -0.0012      Z:    -0.0001     Total:     1.9623


*** tstop() called on n063 at Mon Jun  8 13:47:00 2020
Module time:
	user time   =     145.39 seconds =       2.42 minutes
	system time =       6.45 seconds =       0.11 minutes
	total time  =         40 seconds =       0.67 minutes
Total time:
	user time   =     145.39 seconds =       2.42 minutes
	system time =       6.45 seconds =       0.11 minutes
	total time  =         40 seconds =       0.67 minutes

*** tstart() called on n063
*** at Mon Jun  8 13:47:00 2020


  //>>>>>>>>>>>>>>>>>>>>>>>>>>>>>>>>>>>//
  //               DFMP2               //
  //<<<<<<<<<<<<<<<<<<<<<<<<<<<<<<<<<<<//

   => Loading Basis Set <=

    Name: (HEAVY-AUG-CC-PV(Q+D)Z AUX)
    Role: RIFIT
    Keyword: DF_BASIS_MP2
    atoms 1, 4, 7, 10     entry C          line   180 file /opt/psi/4/master/share/psi4/basis/heavy-aug-cc-pvqz-ri.gbs 
    atoms 2-3, 5-6, 8, 11 entry H          line    44 file /opt/psi/4/master/share/psi4/basis/heavy-aug-cc-pvqz-ri.gbs 
    atoms 9, 12           entry O          line   328 file /opt/psi/4/master/share/psi4/basis/heavy-aug-cc-pvqz-ri.gbs 

	 --------------------------------------------------------
	                          DF-MP2                         
	      2nd-Order Density-Fitted Moller-Plesset Theory     
	              RMP2 Wavefunction,   4 Threads             
	                                                         
	        Rob Parrish, Justin Turney, Andy Simmonett,      
	           Ed Hohenstein, and C. David Sherrill          
	 --------------------------------------------------------

   => Auxiliary Basis Set <=

  Basis Set: (HEAVY-AUG-CC-PV(Q+D)Z AUX)
    Blend: HEAVY-AUG-CC-PVQZ-RI
    Number of shells: 306
    Number of basis function: 1338
    Number of Cartesian functions: 1842
    Spherical Harmonics?: true
    Max angular momentum: 5

	 --------------------------------------------------------
	                 NBF =   660, NAUX =  1338
	 --------------------------------------------------------
	   CLASS    FOCC     OCC    AOCC    AVIR     VIR    FVIR
	   PAIRS       6      23      17     637     637       0
	 --------------------------------------------------------

	-----------------------------------------------------------
	 ==================> DF-MP2 Energies <==================== 
	-----------------------------------------------------------
	 Reference Energy          =    -304.7538900391632524 [Eh]
	 Singles Energy            =      -0.0000000000000000 [Eh]
	 Same-Spin Energy          =      -0.2941316761416652 [Eh]
	 Opposite-Spin Energy      =      -0.9238647060294329 [Eh]
	 Correlation Energy        =      -1.2179963821710982 [Eh]
	 Total Energy              =    -305.9718864213343750 [Eh]
	-----------------------------------------------------------
	 ================> DF-SCS-MP2 Energies <================== 
	-----------------------------------------------------------
	 SCS Same-Spin Scale       =       0.3333333333333333 [-]
	 SCS Opposite-Spin Scale   =       1.2000000000000000 [-]
	 SCS Same-Spin Energy      =      -0.0980438920472217 [Eh]
	 SCS Opposite-Spin Energy  =      -1.1086376472353194 [Eh]
	 SCS Correlation Energy    =      -1.2066815392825412 [Eh]
	 SCS Total Energy          =    -305.9605715784458084 [Eh]
	-----------------------------------------------------------


*** tstop() called on n063 at Mon Jun  8 13:47:08 2020
Module time:
	user time   =      28.21 seconds =       0.47 minutes
	system time =       0.33 seconds =       0.01 minutes
	total time  =          8 seconds =       0.13 minutes
Total time:
	user time   =     173.61 seconds =       2.89 minutes
	system time =       6.78 seconds =       0.11 minutes
	total time  =         48 seconds =       0.80 minutes

========================OPTAVC-XTPL==========================

MP2/QZ correlation energy -1.2179963821710982
SCF/QZ reference energy -304.75389003916325


=============================================================

Scratch directory: /tmp/

Scratch directory: /tmp/
    SCF Algorithm Type (re)set to DF.

*** tstart() called on n063
*** at Mon Jun  8 13:47:08 2020


  //>>>>>>>>>>>>>>>>>>>>>>>>>>>>>>>>>>>//
  //      Guess SCF, pcseg-0 Basis     //
  //<<<<<<<<<<<<<<<<<<<<<<<<<<<<<<<<<<<//

   => Loading Basis Set <=

    Name: PCSEG-0
    Role: ORBITAL
    Keyword: BASIS
    atoms 1, 4, 7, 10     entry C          line    71 file /opt/psi/4/master/share/psi4/basis/pcseg-0.gbs 
    atoms 2-3, 5-6, 8, 11 entry H          line    13 file /opt/psi/4/master/share/psi4/basis/pcseg-0.gbs 
    atoms 9, 12           entry O          line   103 file /opt/psi/4/master/share/psi4/basis/pcseg-0.gbs 


         ---------------------------------------------------------
                           SCF Castup computation                  
         ---------------------------------------------------------
                                   SCF
               by Justin Turney, Rob Parrish, Andy Simmonett
                          and Daniel G. A. Smith
                              RHF Reference
                        4 Threads,    500 MiB Core
         ---------------------------------------------------------

  ==> Geometry <==

    Molecular point group: c1
    Full point group: C1

    Geometry (in Angstrom), charge = 0, multiplicity = 1:

       Center              X                  Y                   Z               Mass       
    ------------   -----------------  -----------------  -----------------  -----------------
         C           -1.174199517890    -0.774961658783    -0.000122119707    12.000000000000
         H           -1.619191780690    -1.211086467183    -0.891051837007     1.007825032230
         H           -1.619266333190    -1.211279077683     0.890674642893     1.007825032230
         C           -1.174315833390     0.774780790217     0.000039360393    12.000000000000
         H           -1.619438560890     1.210840422117     0.890934646993     1.007825032230
         H           -1.619393466790     1.211029631617    -0.890785784207     1.007825032230
         C            0.352869763910     0.922222842717     0.000099260793    12.000000000000
         H            0.838733981110     1.894958531228     0.000209351703     1.007825032230
         O            0.767439253606     0.000096099177    -1.027327840292    15.994914619570
         C            0.352983514167    -0.922214398821    -0.000074648268    12.000000000000
         H            0.838960516772    -1.892289900946    -0.000156415026     1.007825032230
         O            0.767367158094    -0.000103667081     1.027382515706    15.994914619570

  Running in c1 symmetry.

  Rotational constants: A =      0.19850  B =      0.16229  C =      0.14675 [cm^-1]
  Rotational constants: A =   5950.84880  B =   4865.30163  C =   4399.45760 [MHz]
  Nuclear repulsion =  256.995159181990175

  Charge       = 0
  Multiplicity = 1
  Electrons    = 46
  Nalpha       = 23
  Nbeta        = 23

  ==> Algorithm <==

  SCF Algorithm Type is DF.
  DIIS enabled.
  MOM disabled.
  Fractional occupation disabled.
  Guess Type is SAD.
  Energy threshold   = 1.00e-10
  Density threshold  = 1.00e-10
  Integral threshold = 0.00e+00

  ==> Primary Basis <==

  Basis Set: PCSEG-0
    Blend: PCSEG-0
    Number of shells: 42
    Number of basis function: 66
    Number of Cartesian functions: 66
    Spherical Harmonics?: true
    Max angular momentum: 1

   => Loading Basis Set <=

    Name: (PCSEG-0 AUX)
    Role: JKFIT
    Keyword: DF_BASIS_SCF
    atoms 1, 4, 7, 10     entry C          line   198 file /opt/psi/4/master/share/psi4/basis/def2-universal-jkfit.gbs 
    atoms 2-3, 5-6, 8, 11 entry H          line    18 file /opt/psi/4/master/share/psi4/basis/def2-universal-jkfit.gbs 
    atoms 9, 12           entry O          line   318 file /opt/psi/4/master/share/psi4/basis/def2-universal-jkfit.gbs 

  ==> Integral Setup <==

  ==> DiskDFJK: Density-Fitted J/K Matrices <==

    J tasked:                  Yes
    K tasked:                  Yes
    wK tasked:                  No
    OpenMP threads:              4
    Integrals threads:           4
    Memory [MiB]:              375
    Algorithm:                Core
    Integral Cache:           NONE
    Schwarz Cutoff:          1E-12
    Fitting Condition:       1E-10

   => Auxiliary Basis Set <=

  Basis Set: (PCSEG-0 AUX)
    Blend: DEF2-UNIVERSAL-JKFIT
    Number of shells: 186
    Number of basis function: 562
    Number of Cartesian functions: 662
    Spherical Harmonics?: true
    Max angular momentum: 4

  Minimum eigenvalue in the overlap matrix is 1.2859070466E-03.
  Reciprocal condition number of the overlap matrix is 2.1240880403E-04.
    Using symmetric orthogonalization.

  ==> Pre-Iterations <==

  SCF Guess: Superposition of Atomic Densities via on-the-fly atomic UHF (no occupation information).

   -------------------------
    Irrep   Nso     Nmo    
   -------------------------
     A         66      66 
   -------------------------
    Total      66      66
   -------------------------

  ==> Iterations <==

                           Total Energy        Delta E     RMS |[F,P]|

   @DF-RHF iter SAD:  -303.69481352174284   -3.03695e+02   0.00000e+00 
   @DF-RHF iter   1:  -303.56564108034331    1.29172e-01   7.24253e-03 DIIS
   @DF-RHF iter   2:  -303.66473177157138   -9.90907e-02   3.97107e-03 DIIS
   @DF-RHF iter   3:  -303.69037512589830   -2.56434e-02   6.19758e-04 DIIS
   @DF-RHF iter   4:  -303.69156067127199   -1.18555e-03   1.96542e-04 DIIS
   @DF-RHF iter   5:  -303.69165654666466   -9.58754e-05   4.10937e-05 DIIS
   @DF-RHF iter   6:  -303.69166415752971   -7.61087e-06   8.38688e-06 DIIS
   @DF-RHF iter   7:  -303.69166456131791   -4.03788e-07   1.68636e-06 DIIS
   @DF-RHF iter   8:  -303.69166457541485   -1.40969e-08   5.42007e-07 DIIS
   @DF-RHF iter   9:  -303.69166457682985   -1.41500e-09   1.09434e-07 DIIS
   @DF-RHF iter  10:  -303.69166457690659   -7.67386e-11   1.85783e-08 DIIS
   @DF-RHF iter  11:  -303.69166457690892   -2.33058e-12   2.68951e-09 DIIS
   @DF-RHF iter  12:  -303.69166457690903   -1.13687e-13   4.18643e-10 DIIS
   @DF-RHF iter  13:  -303.69166457690869    3.41061e-13   1.25257e-10 DIIS
   @DF-RHF iter  14:  -303.69166457690881   -1.13687e-13   3.77531e-11 DIIS
  Energy and wave function converged.


  ==> Post-Iterations <==

    Orbital Energies [Eh]
    ---------------------

    Doubly Occupied:                                                      

       1A    -20.584575     2A    -20.584512     3A    -11.369865  
       4A    -11.369626     5A    -11.256148     6A    -11.255751  
       7A     -1.537600     8A     -1.313009     9A     -1.091797  
      10A     -1.008791    11A     -0.821803    12A     -0.790066  
      13A     -0.768003    14A     -0.680713    15A     -0.662958  
      16A     -0.658509    17A     -0.552101    18A     -0.534475  
      19A     -0.527406    20A     -0.524521    21A     -0.519493  
      22A     -0.467054    23A     -0.443211  

    Virtual:                                                              

      24A      0.203023    25A      0.231186    26A      0.236069  
      27A      0.241991    28A      0.253167    29A      0.267285  
      30A      0.314387    31A      0.350243    32A      0.350976  
      33A      0.382124    34A      0.406827    35A      0.464576  
      36A      0.570227    37A      0.796406    38A      0.807567  
      39A      0.820761    40A      0.925420    41A      0.932766  
      42A      0.946952    43A      0.950017    44A      1.003331  
      45A      1.005122    46A      1.030065    47A      1.059992  
      48A      1.071273    49A      1.134149    50A      1.148884  
      51A      1.170419    52A      1.173942    53A      1.210923  
      54A      1.237893    55A      1.424578    56A      1.454753  
      57A      1.482676    58A      1.521989    59A      1.691387  
      60A      1.705343    61A      1.927912    62A      1.950739  
      63A      2.140045    64A      2.299013    65A      2.374949  
      66A      2.441010  

    Final Occupation by Irrep:
              A 
    DOCC [    23 ]

  @DF-RHF Final Energy:  -303.69166457690881

   => Energetics <=

    Nuclear Repulsion Energy =            256.9951591819901751
    One-Electron Energy =                -922.7296739310729663
    Two-Electron Energy =                 362.0428501721739849
    Total Energy =                       -303.6916645769088063

Computation Completed

  //>>>>>>>>>>>>>>>>>>>>>>>>>>>>>>>>>>>//
  //                SCF                //
  //<<<<<<<<<<<<<<<<<<<<<<<<<<<<<<<<<<<//

   => Loading Basis Set <=

    Name: HEAVY-AUG-CC-PV(T+D)Z
    Role: ORBITAL
    Keyword: BASIS
    atoms 1, 4, 7, 10     entry C          line   273 file /opt/psi/4/master/share/psi4/basis/heavy-aug-cc-pv_tpd_z.gbs 
    atoms 2-3, 5-6, 8, 11 entry H          line    86 file /opt/psi/4/master/share/psi4/basis/heavy-aug-cc-pv_tpd_z.gbs 
    atoms 9, 12           entry O          line   365 file /opt/psi/4/master/share/psi4/basis/heavy-aug-cc-pv_tpd_z.gbs 


         ---------------------------------------------------------
                                   SCF
               by Justin Turney, Rob Parrish, Andy Simmonett
                          and Daniel G. A. Smith
                              RHF Reference
                        4 Threads,    500 MiB Core
         ---------------------------------------------------------

  ==> Geometry <==

    Molecular point group: c1
    Full point group: C1

    Geometry (in Angstrom), charge = 0, multiplicity = 1:

       Center              X                  Y                   Z               Mass       
    ------------   -----------------  -----------------  -----------------  -----------------
         C           -1.174199517890    -0.774961658783    -0.000122119707    12.000000000000
         H           -1.619191780690    -1.211086467183    -0.891051837007     1.007825032230
         H           -1.619266333190    -1.211279077683     0.890674642893     1.007825032230
         C           -1.174315833390     0.774780790217     0.000039360393    12.000000000000
         H           -1.619438560890     1.210840422117     0.890934646993     1.007825032230
         H           -1.619393466790     1.211029631617    -0.890785784207     1.007825032230
         C            0.352869763910     0.922222842717     0.000099260793    12.000000000000
         H            0.838733981110     1.894958531228     0.000209351703     1.007825032230
         O            0.767439253606     0.000096099177    -1.027327840292    15.994914619570
         C            0.352983514167    -0.922214398821    -0.000074648268    12.000000000000
         H            0.838960516772    -1.892289900946    -0.000156415026     1.007825032230
         O            0.767367158094    -0.000103667081     1.027382515706    15.994914619570

  Running in c1 symmetry.

  Rotational constants: A =      0.19850  B =      0.16229  C =      0.14675 [cm^-1]
  Rotational constants: A =   5950.84880  B =   4865.30163  C =   4399.45760 [MHz]
  Nuclear repulsion =  256.995159181990175

  Charge       = 0
  Multiplicity = 1
  Electrons    = 46
  Nalpha       = 23
  Nbeta        = 23

  ==> Algorithm <==

  SCF Algorithm Type is DF.
  DIIS enabled.
  MOM disabled.
  Fractional occupation disabled.
  Guess Type is SAD.
  Energy threshold   = 1.00e-10
  Density threshold  = 1.00e-10
  Integral threshold = 0.00e+00

  ==> Primary Basis <==

  Basis Set: HEAVY-AUG-CC-PV(T+D)Z
    Blend: HEAVY-AUG-CC-PV(T+D)Z
    Number of shells: 120
    Number of basis function: 360
    Number of Cartesian functions: 420
    Spherical Harmonics?: true
    Max angular momentum: 3

   => Loading Basis Set <=

    Name: (HEAVY-AUG-CC-PV(T+D)Z AUX)
    Role: JKFIT
    Keyword: DF_BASIS_SCF
    atoms 1, 4, 7, 10     entry C          line   200 file /opt/psi/4/master/share/psi4/basis/heavy-aug-cc-pvtz-jkfit.gbs 
    atoms 2-3, 5-6, 8, 11 entry H          line   116 file /opt/psi/4/master/share/psi4/basis/heavy-aug-cc-pvtz-jkfit.gbs 
    atoms 9, 12           entry O          line   324 file /opt/psi/4/master/share/psi4/basis/heavy-aug-cc-pvtz-jkfit.gbs 


  Computing basis projection from PCSEG-0 to HEAVY-AUG-CC-PV(T+D)Z

  ==> Integral Setup <==

  ==> DiskDFJK: Density-Fitted J/K Matrices <==

    J tasked:                  Yes
    K tasked:                  Yes
    wK tasked:                  No
    OpenMP threads:              4
    Integrals threads:           4
    Memory [MiB]:              375
    Algorithm:                Disk
    Integral Cache:           NONE
    Schwarz Cutoff:          1E-12
    Fitting Condition:       1E-10

   => Auxiliary Basis Set <=

  Basis Set: (HEAVY-AUG-CC-PV(T+D)Z AUX)
    Blend: HEAVY-AUG-CC-PVTZ-JKFIT
    Number of shells: 240
    Number of basis function: 804
    Number of Cartesian functions: 996
    Spherical Harmonics?: true
    Max angular momentum: 4

  Minimum eigenvalue in the overlap matrix is 5.5273449344E-06.
  Reciprocal condition number of the overlap matrix is 4.0411819129E-07.
    Using symmetric orthogonalization.

  ==> Pre-Iterations <==

  SCF Guess: Orbitals guess was supplied from a previous computation.

   -------------------------
    Irrep   Nso     Nmo    
   -------------------------
     A        360     360 
   -------------------------
    Total     360     360
   -------------------------

  ==> Iterations <==

                           Total Energy        Delta E     RMS |[F,P]|

   @DF-RHF iter   0:  -304.36275615110918   -3.04363e+02   4.15908e-03 
   @DF-RHF iter   1:  -304.71633175449432   -3.53576e-01   5.72560e-04 DIIS
   @DF-RHF iter   2:  -304.73149515428264   -1.51634e-02   2.71916e-04 DIIS
   @DF-RHF iter   3:  -304.73519125917721   -3.69610e-03   4.87428e-05 DIIS
   @DF-RHF iter   4:  -304.73545526503443   -2.64006e-04   1.57965e-05 DIIS
   @DF-RHF iter   5:  -304.73547632472844   -2.10597e-05   6.25345e-06 DIIS
   @DF-RHF iter   6:  -304.73548022347933   -3.89875e-06   1.42044e-06 DIIS
   @DF-RHF iter   7:  -304.73548048914358   -2.65664e-07   3.12658e-07 DIIS
   @DF-RHF iter   8:  -304.73548050337268   -1.42291e-08   7.97525e-08 DIIS
   @DF-RHF iter   9:  -304.73548050430668   -9.33994e-10   2.59305e-08 DIIS
   @DF-RHF iter  10:  -304.73548050439172   -8.50378e-11   6.47513e-09 DIIS
   @DF-RHF iter  11:  -304.73548050439859   -6.87805e-12   1.69241e-09 DIIS
   @DF-RHF iter  12:  -304.73548050439899   -3.97904e-13   4.79253e-10 DIIS
   @DF-RHF iter  13:  -304.73548050439962   -6.25278e-13   7.67622e-11 DIIS
  Energy and wave function converged.


  ==> Post-Iterations <==

    Orbital Energies [Eh]
    ---------------------

    Doubly Occupied:                                                      

       1A    -20.568181     2A    -20.568145     3A    -11.349906  
       4A    -11.349651     5A    -11.237699     6A    -11.237133  
       7A     -1.491683     8A     -1.293058     9A     -1.067675  
      10A     -0.988078    11A     -0.810285    12A     -0.789567  
      13A     -0.746288    14A     -0.672396    15A     -0.651352  
      16A     -0.646404    17A     -0.534055    18A     -0.524445  
      19A     -0.519383    20A     -0.512070    21A     -0.509918  
      22A     -0.459496    23A     -0.433463  

    Virtual:                                                              

      24A      0.050350    25A      0.050958    26A      0.059703  
      27A      0.072059    28A      0.073416    29A      0.092445  
      30A      0.093542    31A      0.096702    32A      0.116615  
      33A      0.126305    34A      0.127402    35A      0.130069  
      36A      0.162104    37A      0.176107    38A      0.195280  
      39A      0.204137    40A      0.206504    41A      0.214125  
      42A      0.220410    43A      0.228366    44A      0.233848  
      45A      0.249366    46A      0.268463    47A      0.268598  
      48A      0.277059    49A      0.295358    50A      0.300748  
      51A      0.312892    52A      0.331217    53A      0.335328  
      54A      0.341771    55A      0.347701    56A      0.356281  
      57A      0.356947    58A      0.362570    59A      0.374746  
      60A      0.397678    61A      0.404425    62A      0.412732  
      63A      0.421221    64A      0.432401    65A      0.446470  
      66A      0.457820    67A      0.465025    68A      0.485340  
      69A      0.492986    70A      0.503842    71A      0.510857  
      72A      0.516689    73A      0.519770    74A      0.527001  
      75A      0.528715    76A      0.543693    77A      0.545999  
      78A      0.580813    79A      0.591688    80A      0.608236  
      81A      0.613163    82A      0.620791    83A      0.653723  
      84A      0.658694    85A      0.672779    86A      0.722030  
      87A      0.735836    88A      0.747610    89A      0.753888  
      90A      0.770329    91A      0.780928    92A      0.791081  
      93A      0.797137    94A      0.815613    95A      0.818606  
      96A      0.828087    97A      0.844036    98A      0.877636  
      99A      0.891132   100A      0.926900   101A      0.928732  
     102A      0.938733   103A      0.946018   104A      0.970397  
     105A      0.985532   106A      0.998585   107A      1.032139  
     108A      1.037093   109A      1.038648   110A      1.060276  
     111A      1.082316   112A      1.096525   113A      1.114101  
     114A      1.120778   115A      1.138229   116A      1.160724  
     117A      1.185445   118A      1.222767   119A      1.247420  
     120A      1.251612   121A      1.260970   122A      1.283294  
     123A      1.321657   124A      1.329734   125A      1.335737  
     126A      1.352814   127A      1.373492   128A      1.383783  
     129A      1.398608   130A      1.403612   131A      1.415092  
     132A      1.446406   133A      1.447629   134A      1.457980  
     135A      1.483449   136A      1.498910   137A      1.505612  
     138A      1.528246   139A      1.546505   140A      1.560191  
     141A      1.581470   142A      1.586243   143A      1.586939  
     144A      1.588972   145A      1.599438   146A      1.654178  
     147A      1.656569   148A      1.669922   149A      1.677178  
     150A      1.684086   151A      1.698523   152A      1.707824  
     153A      1.715536   154A      1.731698   155A      1.735525  
     156A      1.750069   157A      1.752125   158A      1.791937  
     159A      1.799778   160A      1.807110   161A      1.822818  
     162A      1.901429   163A      1.902347   164A      1.930447  
     165A      1.939413   166A      1.949395   167A      1.984657  
     168A      1.990521   169A      2.003167   170A      2.007702  
     171A      2.026796   172A      2.046504   173A      2.054750  
     174A      2.058761   175A      2.150455   176A      2.151372  
     177A      2.208894   178A      2.252524   179A      2.300751  
     180A      2.333548   181A      2.392444   182A      2.401215  
     183A      2.419773   184A      2.443635   185A      2.451164  
     186A      2.472081   187A      2.504301   188A      2.508488  
     189A      2.540767   190A      2.579642   191A      2.628700  
     192A      2.646133   193A      2.681964   194A      2.685851  
     195A      2.723961   196A      2.769225   197A      2.787531  
     198A      2.875356   199A      2.875374   200A      2.891064  
     201A      2.914550   202A      2.921445   203A      2.954109  
     204A      2.958843   205A      2.963854   206A      3.076882  
     207A      3.098029   208A      3.119696   209A      3.127487  
     210A      3.181545   211A      3.186702   212A      3.205005  
     213A      3.215825   214A      3.240503   215A      3.261609  
     216A      3.306556   217A      3.333004   218A      3.408448  
     219A      3.412130   220A      3.414702   221A      3.434543  
     222A      3.441245   223A      3.472049   224A      3.483846  
     225A      3.500837   226A      3.524480   227A      3.538618  
     228A      3.602469   229A      3.625880   230A      3.630475  
     231A      3.666992   232A      3.683577   233A      3.695458  
     234A      3.706156   235A      3.728511   236A      3.729732  
     237A      3.749291   238A      3.816120   239A      3.832778  
     240A      3.842976   241A      3.865898   242A      3.873676  
     243A      3.926906   244A      3.952140   245A      3.959537  
     246A      3.961297   247A      3.964475   248A      4.004179  
     249A      4.018657   250A      4.048279   251A      4.053558  
     252A      4.073691   253A      4.105413   254A      4.111475  
     255A      4.144637   256A      4.163541   257A      4.169818  
     258A      4.178936   259A      4.185452   260A      4.211205  
     261A      4.235216   262A      4.244491   263A      4.258088  
     264A      4.263963   265A      4.267734   266A      4.315919  
     267A      4.342810   268A      4.365554   269A      4.423585  
     270A      4.470357   271A      4.478734   272A      4.481902  
     273A      4.495482   274A      4.511082   275A      4.526321  
     276A      4.551998   277A      4.582845   278A      4.637397  
     279A      4.688106   280A      4.689014   281A      4.701328  
     282A      4.706031   283A      4.730336   284A      4.743180  
     285A      4.755136   286A      4.805856   287A      4.819323  
     288A      4.820781   289A      4.837427   290A      4.885550  
     291A      4.907256   292A      4.956882   293A      4.963085  
     294A      4.963325   295A      5.096486   296A      5.116627  
     297A      5.125046   298A      5.190261   299A      5.193776  
     300A      5.238829   301A      5.265357   302A      5.281932  
     303A      5.393594   304A      5.416453   305A      5.432596  
     306A      5.464531   307A      5.471475   308A      5.578817  
     309A      5.581590   310A      5.595355   311A      5.653046  
     312A      5.704653   313A      5.712031   314A      5.715734  
     315A      5.861448   316A      5.868313   317A      5.895209  
     318A      5.924566   319A      6.060223   320A      6.122759  
     321A      6.140836   322A      6.204681   323A      6.238906  
     324A      6.281720   325A      6.284246   326A      6.346563  
     327A      6.383538   328A      6.493100   329A      6.559822  
     330A      6.901185   331A      6.901530   332A      6.939397  
     333A      6.962536   334A      6.996004   335A      7.024022  
     336A      7.104656   337A      7.128247   338A      7.171948  
     339A      7.189096   340A      7.226019   341A      7.238113  
     342A      7.388718   343A      7.487729   344A      7.587862  
     345A      7.608278   346A      7.634035   347A      7.736774  
     348A      7.793081   349A      7.820629   350A      7.910695  
     351A      8.037840   352A      8.194419   353A      8.219641  
     354A      8.226903   355A     14.245113   356A     15.439939  
     357A     15.552414   358A     15.865610   359A     17.390785  
     360A     18.711047  

    Final Occupation by Irrep:
              A 
    DOCC [    23 ]

  @DF-RHF Final Energy:  -304.73548050439962

   => Energetics <=

    Nuclear Repulsion Energy =            256.9951591819901751
    One-Electron Energy =                -925.5406130551800743
    Two-Electron Energy =                 363.8099733687902813
    Total Energy =                       -304.7354805043996180

Computation Completed


Properties will be evaluated at   0.000000,   0.000000,   0.000000 [a0]

Properties computed using the SCF density matrix

  Nuclear Dipole Moment: [e a0]
     X:    -4.4921      Y:     0.0020      Z:    -0.0002

  Electronic Dipole Moment: [e a0]
     X:     3.7196      Y:    -0.0025      Z:     0.0001

  Dipole Moment: [e a0]
     X:    -0.7725      Y:    -0.0005      Z:    -0.0000     Total:     0.7725

  Dipole Moment: [D]
     X:    -1.9634      Y:    -0.0012      Z:    -0.0001     Total:     1.9634


*** tstop() called on n063 at Mon Jun  8 13:47:20 2020
Module time:
	user time   =      39.79 seconds =       0.66 minutes
	system time =       2.11 seconds =       0.04 minutes
	total time  =         12 seconds =       0.20 minutes
Total time:
	user time   =     213.88 seconds =       3.56 minutes
	system time =       9.08 seconds =       0.15 minutes
	total time  =         60 seconds =       1.00 minutes

*** tstart() called on n063
*** at Mon Jun  8 13:47:20 2020


  //>>>>>>>>>>>>>>>>>>>>>>>>>>>>>>>>>>>//
  //               DFMP2               //
  //<<<<<<<<<<<<<<<<<<<<<<<<<<<<<<<<<<<//

   => Loading Basis Set <=

    Name: (HEAVY-AUG-CC-PV(T+D)Z AUX)
    Role: RIFIT
    Keyword: DF_BASIS_MP2
    atoms 1, 4, 7, 10     entry C          line   148 file /opt/psi/4/master/share/psi4/basis/heavy-aug-cc-pvtz-ri.gbs 
    atoms 2-3, 5-6, 8, 11 entry H          line    44 file /opt/psi/4/master/share/psi4/basis/heavy-aug-cc-pvtz-ri.gbs 
    atoms 9, 12           entry O          line   264 file /opt/psi/4/master/share/psi4/basis/heavy-aug-cc-pvtz-ri.gbs 

	 --------------------------------------------------------
	                          DF-MP2                         
	      2nd-Order Density-Fitted Moller-Plesset Theory     
	              RMP2 Wavefunction,   4 Threads             
	                                                         
	        Rob Parrish, Justin Turney, Andy Simmonett,      
	           Ed Hohenstein, and C. David Sherrill          
	 --------------------------------------------------------

   => Auxiliary Basis Set <=

  Basis Set: (HEAVY-AUG-CC-PV(T+D)Z AUX)
    Blend: HEAVY-AUG-CC-PVTZ-RI
    Number of shells: 228
    Number of basis function: 816
    Number of Cartesian functions: 1026
    Spherical Harmonics?: true
    Max angular momentum: 4

	 --------------------------------------------------------
	                 NBF =   360, NAUX =   816
	 --------------------------------------------------------
	   CLASS    FOCC     OCC    AOCC    AVIR     VIR    FVIR
	   PAIRS       6      23      17     337     337       0
	 --------------------------------------------------------

	-----------------------------------------------------------
	 ==================> DF-MP2 Energies <==================== 
	-----------------------------------------------------------
	 Reference Energy          =    -304.7354805043996180 [Eh]
	 Singles Energy            =      -0.0000000000000000 [Eh]
	 Same-Spin Energy          =      -0.2854869644645590 [Eh]
	 Opposite-Spin Energy      =      -0.8633379777147615 [Eh]
	 Correlation Energy        =      -1.1488249421793206 [Eh]
	 Total Energy              =    -305.8843054465789351 [Eh]
	-----------------------------------------------------------
	 ================> DF-SCS-MP2 Energies <================== 
	-----------------------------------------------------------
	 SCS Same-Spin Scale       =       0.3333333333333333 [-]
	 SCS Opposite-Spin Scale   =       1.2000000000000000 [-]
	 SCS Same-Spin Energy      =      -0.0951623214881863 [Eh]
	 SCS Opposite-Spin Energy  =      -1.0360055732577138 [Eh]
	 SCS Correlation Energy    =      -1.1311678947459001 [Eh]
	 SCS Total Energy          =    -305.8666483991455038 [Eh]
	-----------------------------------------------------------


*** tstop() called on n063 at Mon Jun  8 13:47:22 2020
Module time:
	user time   =       6.79 seconds =       0.11 minutes
	system time =       0.11 seconds =       0.00 minutes
	total time  =          2 seconds =       0.03 minutes
Total time:
	user time   =     220.68 seconds =       3.68 minutes
	system time =       9.19 seconds =       0.15 minutes
	total time  =         62 seconds =       1.03 minutes

========================OPTAVC-XTPL==========================

MP2/TZ correlation energy -1.1488249421793206

=============================================================

    Psi4 stopped on: Monday, 08 June 2020 01:47PM
    Psi4 wall time for execution: 0:01:01.18

*** Psi4 exiting successfully. Buy a developer a beer!
