
 Primary working directories    : /tmp/320938.366.gen4.q
 Secondary working directories  : /tmp/320938.366.gen4.q
 Wavefunction directory         : /home/vulcan/mel64643/wfu/
 Main file repository           : /tmp/320938.366.gen4.q/

 ARCHNAME  : Linux/x86_64
 FC        : /opt/intel/compilers_and_libraries_2016.1.150/linux/bin/intel64/ifort
 FCVERSION : 16.0.1
 BLASLIB   : -mkl
 id        : ccgc

 Nodes     nprocs
 n025         3
 Number of processes for MPI-2 version of Molpro:   nprocs(total)=    4   nprocs(compute)=    3   nprocs(helper)=    1
 ga_uses_ma=false, calling ma_init with nominal heap.
 GA-space will be limited to   8.0 MW (determined by -G option)

 Using customized tuning parameters: mindgm=10; mindgv=16; mindgc=4; mindgr=1; noblas=0; mincuda=1000; minvec=7
 default implementation of scratch files=sf  

 ***,Frequencies for min3
 memory,1000,m
 gthresh,energy=1.0d-10,orbital=1.0d-10,oneint=1.0d-16,twoint=1.0d-16,optgrad=1.0d-6,compress=1.0d-13
 geomtyp=xyz
 
  geometry = {
  12
  arbitrary comment
     C    1.776964391707    0.711398808326   -0.046821519474
     C    0.491772914207   -0.060028174781   -0.196761682970
     C    0.450345077466   -1.536282654516    0.101388159445
     O   -0.560717392583    0.727274119304    0.254264859039
     O   -1.837864259533    0.092254635938   -0.120377205431
     H    2.587658785004    0.211463095485   -0.612283403953
     H    1.659797271198    1.742864845211   -0.427328506274
     H    2.094935349215    0.774240213772    1.016865938740
     H   -0.505262299357   -1.982877327864   -0.219789301729
     H    1.281452346661   -2.047245104993   -0.417341918354
     H    0.561766253221   -1.719028063856    1.194712542610
     H   -1.988764395672    0.550562113428   -0.966637556935
  }
 
 basis=cc-pvdz
 {rhf;maxit,200}
 {uccsd(t);maxit,200}

 Variables initialized (661), CPU time= 0.00 sec
 Commands  initialized (458), CPU time= 0.01 sec, 486 directives.
 Default parameters read. Elapsed time= 0.05 sec

 Checking input...
 Passed
1


                                         ***  PROGRAM SYSTEM MOLPRO  ***
                         Copyright, University College Cardiff Consultants Limited, 2008

                                    Version 2010.1 linked May 16 2016 07:17:05


 **********************************************************************************************************************************
 LABEL *   Frequencies for min3                                                          
 Linux-4.4.3/n025(x86_64) 64 bit mpp version                                             DATE: 07-Mar-20          TIME: 03:07:05  
 **********************************************************************************************************************************

 SHA1:             9e8077add272b0f3cad6f7df79ec5211205f459d
 **********************************************************************************************************************************

 THRESHOLDS:

 ZERO    =  1.00D-12  ONEINT  =  1.00D-16  TWOINT  =  1.00D-16  PREFAC  =  1.00D-14  LOCALI  =  1.00D-09  EORDER  =  1.00D-04
 ENERGY  =  1.00D-10  ETEST   =  0.00D+00  EDENS   =  0.00D+00  THRDEDEF=  1.00D-06  GRADIENT=  1.00D-02  STEP    =  1.00D-03
 ORBITAL =  1.00D-10  CIVEC   =  1.00D-05  COEFF   =  1.00D-04  PRINTCI =  5.00D-02  PUNCHCI =  9.90D+01  OPTGRAD =  1.00D-06
 OPTENERG=  1.00D-06  OPTSTEP =  3.00D-04  THRGRAD =  1.00D-10  COMPRESS=  1.00D-13  VARMIN  =  1.00D-07  VARMAX  =  1.00D-03
 THRDOUB =  0.00D+00  THRDIV  =  1.00D-05  THRRED  =  1.00D-07  THRPSP  =  1.00D+00  THRDC   =  1.00D-10  THRCS   =  1.00D-10
 THRNRM  =  1.00D-08  THREQ   =  0.00D+00  THRDE   =  1.00D+00  THRREF  =  1.00D-05  SPARFAC =  1.00D+00  THRDLP  =  1.00D-07
 THRDIA  =  1.00D-10  THRDLS  =  1.00D-07  THRGPS  =  0.00D+00  THRKEX  =  0.00D+00  THRDIS  =  2.00D-01  THRVAR  =  1.00D-10
 THRLOC  =  1.00D-06  THRGAP  =  1.00D-06  THRLOCT = -1.00D+00  THRGAPT = -1.00D+00  THRORB  =  1.00D-06  THRMLTP =  0.00D+00
 THRCPQCI=  1.00D-10  KEXTA   =  0.00D+00  THRCOARS=  0.00D+00  SYMTOL  =  1.00D-06  GRADTOL =  1.00D-06  THROVL  =  1.00D-08
 THRORTH =  1.00D-08  GRID    =  1.00D-06  GRIDMAX =  1.00D-03  DTMAX   =  0.00D+00

 SETTING GEOMTYP        =    XYZ

 Variable memory set to 1000000000 words,  buffer space   230000 words

 SETTING BASIS          =    CC-PVDZ


 Recomputing integrals since basis changed


 Using spherical harmonics

 Library entry C      S cc-pVDZ              selected for orbital group  1
 Library entry C      P cc-pVDZ              selected for orbital group  1
 Library entry C      D cc-pVDZ              selected for orbital group  1
 Library entry O      S cc-pVDZ              selected for orbital group  2
 Library entry O      P cc-pVDZ              selected for orbital group  2
 Library entry O      D cc-pVDZ              selected for orbital group  2
 Library entry H      S cc-pVDZ              selected for orbital group  3
 Library entry H      P cc-pVDZ              selected for orbital group  3

1PROGRAM * SEWARD (Integral evaluation for generally contracted gaussian basis sets)     Author: Roland Lindh, 1990

 Geometry written to block  1 of record 700


 Point group  C1  



 ATOMIC COORDINATES

 NR  ATOM    CHARGE       X              Y              Z

   1  C       6.00    3.357976046    1.344348918   -0.088479849
   2  C       6.00    0.929316127   -0.113436811   -0.371825694
   3  C       6.00    0.851028861   -2.903153477    0.191595854
   4  O       8.00   -1.059602309    1.374348908    0.480490948
   5  O       8.00   -3.473060117    0.174335996   -0.227479951
   6  H       1.00    4.889966425    0.399607337   -1.157047948
   7  H       1.00    3.136562276    3.293537242   -0.807533845
   8  H       1.00    3.958854073    1.463101964    1.921598137
   9  H       1.00   -0.954807370   -3.747095102   -0.415341587
  10  H       1.00    2.421593986   -3.868732572   -0.788661929
  11  H       1.00    1.061584368   -3.248492253    2.257679511
  12  H       1.00   -3.758220048    1.040411613   -1.826680251

 Bond lengths in Bohr (Angstrom)

 1-2  2.846719709  1-6  2.093171985  1-7  2.089353447  1-8  2.101325819  2-3  2.847119917
     ( 1.506419190)     ( 1.107658909)     ( 1.105638226)     ( 1.111973732)     ( 1.506630971)

  2- 4  2.625975352   3- 9  2.083663845   3-10  2.088042892   3-11  2.105301444   4- 5  2.786760193
       ( 1.389606307)       ( 1.102627418)       ( 1.104944710)       ( 1.114077542)       ( 1.474689981)

  5-12  1.840881517
       ( 0.974152543)

 Bond angles

  1-2-3  120.36656221   1-2-4  108.88878762   2-1-6  110.02754855   2-1-7  110.67549557

  2- 1- 8  111.59910534   2- 3- 9  111.28760191   2- 3-10  109.84786980   2- 3-11  110.62077887

  2- 4- 5  109.23946093   3- 2- 4  118.03985942   4- 5-12   98.75790268   6- 1- 7  108.84063415

  6- 1- 8  107.73127080   7- 1- 8  107.86575849   9- 3-10  109.13739453   9- 3-11  107.82415252

 10- 3-11  108.03735261

 NUCLEAR CHARGE:                   41
 NUMBER OF PRIMITIVE AOS:         184
 NUMBER OF SYMMETRY AOS:          179
 NUMBER OF CONTRACTIONS:          105   ( 105A   )
 NUMBER OF CORE ORBITALS:           5   (   5A   )
 NUMBER OF VALENCE ORBITALS:       27   (  27A   )


 NUCLEAR REPULSION ENERGY  183.21578975


 Eigenvalues of metric

         1 0.345E-02 0.435E-02 0.105E-01 0.141E-01 0.182E-01 0.214E-01 0.332E-01 0.346E-01


 Contracted 2-electron integrals neglected if value below      1.0D-16
 AO integral compression algorithm  1   Integral accuracy      1.0D-16

     127.664 MB (compressed) written to integral file ( 93.2%)

     Node minimum: 30.671 MB, node maximum: 49.021 MB


 NUMBER OF SORTED TWO-ELECTRON INTEGRALS:    5164320.     BUFFER LENGTH:  32768
 NUMBER OF SEGMENTS:   1  SEGMENT LENGTH:    5164320      RECORD LENGTH: 524288

 Memory used in sort:       5.72 MW

 SORT1 READ    17075251. AND WROTE     5135802. INTEGRALS IN     15 RECORDS. CPU TIME:     0.33 SEC, REAL TIME:     0.37 SEC
 SORT2 READ    15396321. AND WROTE    15487395. INTEGRALS IN    351 RECORDS. CPU TIME:     0.12 SEC, REAL TIME:     0.16 SEC

 Node minimum:     5160610.  Node maximum:     5164320. integrals

 OPERATOR DM      FOR CENTER  0  COORDINATES:    0.000000    0.000000    0.000000


 **********************************************************************************************************************************
 DATASETS  * FILE   NREC   LENGTH (MB)   RECORD NAMES
              1      18        3.17       500      610      700      900      950      970     1000      129      960     1100   
                                          VAR    BASINP    GEOM    SYMINP    ZMAT    AOBASIS   BASIS     P2S    ABASIS      S 
                                         1400     1410     1200     1210     1080     1600     1650     1700   
                                           T        V       H0       H01     AOSYM     SMH    MOLCAS    OPER   

 PROGRAMS   *        TOTAL       INT
 CPU TIMES  *         1.48      1.42
 REAL TIME  *         1.77 SEC
 DISK USED  *       316.01 MB      
 GA USED    *         0.00 MB       (max)       0.00 MB       (current)
 **********************************************************************************************************************************

1PROGRAM * RHF-SCF (OPEN SHELL)       Authors: W. Meyer, H.-J. Werner


 NUMBER OF ELECTRONS:      21+   20-    SPACE SYMMETRY=1    SPIN SYMMETRY: Doublet 
 CONVERGENCE THRESHOLDS:    1.00E-10 (Density)    1.00E-11 (Energy)
 MAX. NUMBER OF ITERATIONS:      200
 INTERPOLATION TYPE:            DIIS
 INTERPOLATION STEPS:              2 (START)      1 (STEP)
 LEVEL SHIFTS:                 -0.30 (CLOSED)  0.00 (OPEN) 



 Orbital guess generated from atomic densities. Full valence occupancy:   32

 Molecular orbital dump at record        2100.2

 ITERATION    DDIFF          GRAD             ENERGY        2-EL.EN.            DIPOLE MOMENTS         DIIS
    1      0.000D+00      0.000D+00      -267.17823698    555.805223    0.57012    0.04950   -0.75041    0
    2      0.000D+00      0.617D-02      -267.24891092    555.727015    0.41371   -0.13115   -0.59853    1
    3      0.927D-02      0.214D-02      -267.26108770    555.645027    0.39329   -0.05913   -0.62560    2
    4      0.336D-02      0.912D-03      -267.26469658    555.797202    0.37858   -0.09929   -0.64180    3
    5      0.186D-02      0.364D-03      -267.26526565    555.768493    0.38103   -0.09280   -0.63466    4
    6      0.792D-03      0.110D-03      -267.26534206    555.754755    0.37927   -0.09260   -0.63737    5
    7      0.277D-03      0.511D-04      -267.26536218    555.751737    0.37853   -0.09235   -0.63685    6
    8      0.144D-03      0.272D-04      -267.26536824    555.749795    0.37880   -0.09246   -0.63706    7
    9      0.923D-04      0.115D-04      -267.26536916    555.750107    0.37898   -0.09242   -0.63682    8
   10      0.366D-04      0.501D-05      -267.26536932    555.750719    0.37924   -0.09243   -0.63688    9
   11      0.147D-04      0.196D-05      -267.26536934    555.750562    0.37929   -0.09243   -0.63689    9
   12      0.651D-05      0.671D-06      -267.26536934    555.750696    0.37931   -0.09243   -0.63688    9
   13      0.227D-05      0.226D-06      -267.26536934    555.750611    0.37932   -0.09243   -0.63688    9
   14      0.632D-06      0.759D-07      -267.26536935    555.750620    0.37932   -0.09243   -0.63688    9
   15      0.193D-06      0.301D-07      -267.26536935    555.750616    0.37932   -0.09243   -0.63688    9
   16      0.827D-07      0.145D-07      -267.26536935    555.750618    0.37932   -0.09243   -0.63688    9
   17      0.376D-07      0.753D-08      -267.26536935    555.750618    0.37932   -0.09243   -0.63688    9
   18      0.223D-07      0.342D-08      -267.26536935    555.750618    0.37932   -0.09243   -0.63688    9
   19      0.114D-07      0.133D-08      -267.26536935    555.750618    0.37932   -0.09243   -0.63688    9
   20      0.444D-08      0.569D-09      -267.26536935    555.750618    0.37932   -0.09243   -0.63688    9
   21      0.166D-08      0.287D-09      -267.26536935    555.750618    0.37932   -0.09243   -0.63688    9
   22      0.756D-09      0.162D-09      -267.26536935    555.750618    0.37932   -0.09243   -0.63688    9
   23      0.447D-09      0.798D-10      -267.26536935    555.750618    0.37932   -0.09243   -0.63688    9
   24      0.264D-09      0.318D-10      -267.26536935    555.750618    0.37932   -0.09243   -0.63688    9
   25      0.934D-10      0.130D-10      -267.26536935    555.750618    0.37932   -0.09243   -0.63688    0

 Final alpha occupancy:  21
 Final beta  occupancy:  20

 !RHF STATE 1.1 Energy               -267.265369345010
 Nuclear energy                       183.21578975
 One-electron energy                 -728.35646794
 Two-electron energy                  277.87530885
 Virial quotient                       -1.00156296
 !RHF STATE 1.1 Dipole moment           0.37931915    -0.09243091    -0.63688089
 Dipole moment /Debye                   0.96406996    -0.23492054    -1.61868374

 Orbital energies:

         1.1          2.1          3.1          4.1          5.1          6.1          7.1          8.1          9.1         10.1
    -20.630510   -20.628801   -11.279300   -11.238049   -11.232174    -1.470191    -1.240793    -1.023138    -0.945242    -0.768443

        11.1         12.1         13.1         14.1         15.1         16.1         17.1         18.1         19.1         20.1
     -0.704640    -0.642967    -0.626670    -0.588983    -0.545001    -0.543300    -0.538874    -0.516836    -0.493029    -0.469783

        21.1         22.1         23.1
     -0.352406     0.181275     0.183457


 **********************************************************************************************************************************
 DATASETS  * FILE   NREC   LENGTH (MB)   RECORD NAMES
              1      18        3.17       500      610      700      900      950      970     1000      129      960     1100   
                                          VAR    BASINP    GEOM    SYMINP    ZMAT    AOBASIS   BASIS     P2S    ABASIS      S 
                                         1400     1410     1200     1210     1080     1600     1650     1700   
                                           T        V       H0       H01     AOSYM     SMH    MOLCAS    OPER   

              2       3        0.77       700     1000     2100   
                                         GEOM     BASIS     RHF  

 PROGRAMS   *        TOTAL       RHF       INT
 CPU TIMES  *         3.46      1.97      1.42
 REAL TIME  *         3.94 SEC
 DISK USED  *       332.58 MB      
 SF USED    *         0.04 MB      
 GA USED    *         0.00 MB       (max)       0.00 MB       (current)
 **********************************************************************************************************************************


1PROGRAM * CCSD (Unrestricted open-shell coupled cluster)     Authors: C. Hampel, H.-J. Werner, 1991, M. Deegan, P.J. Knowles, 1992


 Convergence thresholds:  THRVAR = 1.00D-08  THRDEN = 1.00D-10

 CCSD(T)     terms to be evaluated (factor= 1.000)


 Number of core orbitals:           5 (   5 )
 Number of closed-shell orbitals:  15 (  15 )
 Number of active  orbitals:        1 (   1 )
 Number of external orbitals:      84 (  84 )

 Memory could be reduced to 24.91 Mwords without degradation in triples

 Number of N-1 electron functions:              31
 Number of N-2 electron functions:             465
 Number of singly external CSFs:              2635
 Number of doubly external CSFs:           2537250
 Total number of CSFs:                     2539885

 Molecular orbitals read from record     2100.2  Type=RHF/CANONICAL (state 1.1)

 Integral transformation finished. Total CPU:   1.61 sec, npass=  1  Memory used:  12.63 MW

 Starting RMP2 calculation

 ITER.      SQ.NORM     CORR.ENERGY   TOTAL ENERGY   ENERGY CHANGE        DEN1      VAR(S)    VAR(P)  DIIS     TIME
   1      1.24304958    -0.78638404  -268.05175339    -0.78638404    -0.00305027  0.20D-04  0.11D-02  1  1     2.10
   2      1.24569153    -0.78967356  -268.05504290    -0.00328952    -0.00000474  0.54D-06  0.19D-05  2  2     2.52
   3      1.24575707    -0.78971562  -268.05508496    -0.00004206    -0.00000003  0.16D-07  0.68D-08  3  3     2.97
   4      1.24575802    -0.78971562  -268.05508496    -0.00000000    -0.00000000  0.27D-09  0.38D-10  4  4     3.45
   5      1.24575810    -0.78971565  -268.05508500    -0.00000003    -0.00000000  0.25D-11  0.65D-12  5  5     3.96
   6      1.24575811    -0.78971566  -268.05508500    -0.00000001    -0.00000000  0.28D-13  0.86D-14  6  6     4.50
   7      1.24575811    -0.78971566  -268.05508500     0.00000000    -0.00000000  0.47D-15  0.12D-15  6  1     5.05
   8      1.24575811    -0.78971566  -268.05508500     0.00000000    -0.00000000  0.59D-17  0.13D-17  6  2     5.60

 Norm of t1 vector:      0.03891500      S-energy:    -0.00227010      T1 diagnostic:  0.00055010
 Norm of t2 vector:      0.49421021      P-energy:    -0.78744555
                                         Alpha-Beta:  -0.59342871
                                         Alpha-Alpha: -0.10093836
                                         Beta-Beta:   -0.09307848

 Spin contamination <S**2-Sz**2-Sz>     0.00103949
  Reference energy                   -267.265369345009
  RHF-RMP2 correlation energy          -0.789715656434
 !RHF-RMP2 energy                    -268.055085001444

 Starting UCCSD calculation

 ITER.      SQ.NORM     CORR.ENERGY   TOTAL ENERGY   ENERGY CHANGE        DEN1      VAR(S)    VAR(P)  DIIS     TIME
   1      1.26283027    -0.80905856  -268.07442791    -0.80905856    -0.02515912  0.38D-02  0.59D-02  1  1    15.38
   2      1.29161206    -0.83647198  -268.10184133    -0.02741342    -0.00201142  0.22D-03  0.66D-03  2  2    25.12
   3      1.30155580    -0.84097148  -268.10634083    -0.00449950    -0.00032465  0.19D-03  0.56D-04  3  3    34.88
   4      1.30646900    -0.84244883  -268.10781818    -0.00147735    -0.00007208  0.43D-04  0.14D-04  4  4    44.53
   5      1.30919825    -0.84283694  -268.10820628    -0.00038810    -0.00002367  0.19D-04  0.32D-05  5  5    52.30
   6      1.31113670    -0.84304136  -268.10841070    -0.00020442    -0.00000646  0.42D-05  0.12D-05  6  6    59.15
   7      1.31208570    -0.84310012  -268.10846947    -0.00005876    -0.00000208  0.14D-05  0.37D-06  6  2    65.98
   8      1.31252714    -0.84314280  -268.10851214    -0.00004268    -0.00000065  0.45D-06  0.11D-06  6  1    72.82
   9      1.31271234    -0.84314739  -268.10851673    -0.00000459    -0.00000022  0.15D-06  0.35D-07  6  4    79.67
  10      1.31277553    -0.84315032  -268.10851966    -0.00000293    -0.00000005  0.35D-07  0.95D-08  6  3    86.53
  11      1.31280506    -0.84314906  -268.10851840     0.00000126    -0.00000002  0.13D-07  0.28D-08  6  5    93.37
  12      1.31281544    -0.84314880  -268.10851814     0.00000026    -0.00000000  0.26D-08  0.95D-09  6  6   100.19
  13      1.31281430    -0.84314788  -268.10851723     0.00000092    -0.00000000  0.96D-09  0.29D-09  6  2   107.00
  14      1.31280909    -0.84314704  -268.10851638     0.00000085    -0.00000000  0.21D-09  0.67D-10  6  1   113.80
  15      1.31280502    -0.84314645  -268.10851579     0.00000059    -0.00000000  0.78D-10  0.19D-10  6  4   120.63
  16      1.31280183    -0.84314607  -268.10851541     0.00000038    -0.00000000  0.28D-10  0.63D-11  6  3   127.44
  17      1.31279963    -0.84314583  -268.10851517     0.00000024    -0.00000000  0.10D-10  0.24D-11  6  5   134.26
  18      1.31279873    -0.84314577  -268.10851511     0.00000006    -0.00000000  0.41D-11  0.87D-12  6  6   141.09
  19      1.31279812    -0.84314573  -268.10851508     0.00000003    -0.00000000  0.16D-11  0.37D-12  6  2   147.92
  20      1.31279780    -0.84314572  -268.10851507     0.00000001    -0.00000000  0.60D-12  0.13D-12  6  1   154.76
  21      1.31279764    -0.84314571  -268.10851506     0.00000001    -0.00000000  0.28D-12  0.58D-13  6  4   161.57
  22      1.31279752    -0.84314570  -268.10851505     0.00000001    -0.00000000  0.74D-13  0.21D-13  6  3   168.39
  23      1.31279746    -0.84314570  -268.10851504     0.00000000    -0.00000000  0.21D-13  0.63D-14  6  5   175.22
  24      1.31279745    -0.84314570  -268.10851505    -0.00000000    -0.00000000  0.67D-14  0.23D-14  6  6   182.91
  25      1.31279746    -0.84314570  -268.10851505    -0.00000000    -0.00000000  0.21D-14  0.52D-15  6  2   192.85
  26      1.31279746    -0.84314570  -268.10851505    -0.00000000    -0.00000000  0.77D-15  0.15D-15  6  1   202.85
  27      1.31279747    -0.84314570  -268.10851505    -0.00000000    -0.00000000  0.20D-15  0.63D-16  6  3   212.69
  28      1.31279748    -0.84314570  -268.10851505    -0.00000000    -0.00000000  0.30D-16  0.11D-16  6  4   222.59
  29      1.31279748    -0.84314570  -268.10851505    -0.00000000    -0.00000000  0.71D-17  0.29D-17  6  5   232.44
  30      1.31279748    -0.84314570  -268.10851505    -0.00000000    -0.00000000  0.15D-17  0.54D-18  6  6   242.33
  31      1.31279748    -0.84314570  -268.10851505    -0.00000000    -0.00000000  0.35D-18  0.10D-18  6  2   252.33

 Norm of t1 vector:      0.13869853      S-energy:    -0.00281927      T1 diagnostic:  0.01616820
                                                                       D1 diagnostic:  0.06282666
 Norm of t2 vector:      0.54181196      P-energy:    -0.84032644
                                         Alpha-Beta:  -0.66488752
                                         Alpha-Alpha: -0.09147032
                                         Beta-Beta:   -0.08396860

 Spin contamination <S**2-Sz**2-Sz>     0.00216954

 Memory could be reduced to 28.85 Mwords without degradation in triples
 

 RESULTS
 =======

  Reference energy                   -267.265369345009
  UCCSD singles energy                 -0.002819267072
  UCCSD pair energy                    -0.840326436909
  UCCSD correlation energy             -0.843145703981
  Triples (T) contribution             -0.024978029907
  Total correlation energy             -0.868123733888
 
  RHF-UCCSD energy                   -268.108515048991
  RHF-UCCSD[T] energy                -268.134829065798
  RHF-UCCSD-T energy                 -268.133071536597
 !RHF-UCCSD(T) energy                -268.133493078897

 Program statistics:

 Available memory in ccsd:               999997692
 Min. memory needed in ccsd:               7337057
 Max. memory used in ccsd:                10523002
 Max. memory used in cckext:              10867977 (31 integral passes)
 Max. memory used in cckint:              12633073 ( 1 integral passes)



 **********************************************************************************************************************************
 DATASETS  * FILE   NREC   LENGTH (MB)   RECORD NAMES
              1      18        3.17       500      610      700      900      950      970     1000      129      960     1100   
                                          VAR    BASINP    GEOM    SYMINP    ZMAT    AOBASIS   BASIS     P2S    ABASIS      S 
                                         1400     1410     1200     1210     1080     1600     1650     1700   
                                           T        V       H0       H01     AOSYM     SMH    MOLCAS    OPER   

              2       3        0.77       700     1000     2100   
                                         GEOM     BASIS     RHF  

 PROGRAMS   *        TOTAL  UCCSD(T)       RHF       INT
 CPU TIMES  *       329.12    325.65      1.97      1.42
 REAL TIME  *       341.04 SEC
 DISK USED  *         1.30 GB      
 SF USED    *       553.73 MB      
 GA USED    *         0.00 MB       (max)       0.00 MB       (current)
 **********************************************************************************************************************************

        UCCSD(T)        RHF-SCF 
   -268.13349308   -267.26536935
 **********************************************************************************************************************************
 Variable memory released
