
 Primary working directories    : /tmp/320938.592.gen6.q
 Secondary working directories  : /tmp/320938.592.gen6.q
 Wavefunction directory         : /home/vulcan/mel64643/wfu/
 Main file repository           : /tmp/320938.592.gen6.q/

 ARCHNAME  : Linux/x86_64
 FC        : /opt/intel/compilers_and_libraries_2016.1.150/linux/bin/intel64/ifort
 FCVERSION : 16.0.1
 BLASLIB   : -mkl
 id        : ccgc

 Nodes     nprocs
 n085         3
 Number of processes for MPI-2 version of Molpro:   nprocs(total)=    4   nprocs(compute)=    3   nprocs(helper)=    1
 ga_uses_ma=false, calling ma_init with nominal heap.
 GA-space will be limited to   8.0 MW (determined by -G option)

 Using customized tuning parameters: mindgm=10; mindgv=16; mindgc=4; mindgr=1; noblas=0; mincuda=1000; minvec=7
 default implementation of scratch files=sf  

 ***,Frequencies for min3
 memory,1000,m
 gthresh,energy=1.0d-10,orbital=1.0d-10,oneint=1.0d-16,twoint=1.0d-16,optgrad=1.0d-6,compress=1.0d-13
 geomtyp=xyz
 
  geometry = {
  12
  arbitrary comment
     C    1.776964391707    0.711398808326   -0.047331391796
     C    0.491811976407   -0.059992870174   -0.196493901896
     C    0.450332819107   -1.536294019674    0.101417522804
     O   -0.560767745493    0.727234937526    0.254453964104
     O   -1.837840335593    0.092269037726   -0.120531795196
     H    2.585373063107    0.211465914126   -0.611440883996
     H    1.660426393907    1.742887987326   -0.426532369096
     H    2.095123485707    0.774048097326    1.017650404504
     H   -0.504871383593   -1.982776187874   -0.220083970196
     H    1.280188013282   -2.046172354624   -0.415152425689
     H    0.563107763294   -1.719933127910    1.192925978659
     H   -1.987663727255    0.550567676312   -0.967183808456
  }
 
 basis=cc-pvdz
 {rhf;maxit,200}
 {uccsd(t);maxit,200}

 Variables initialized (661), CPU time= 0.00 sec
 Commands  initialized (458), CPU time= 0.00 sec, 486 directives.
 Default parameters read. Elapsed time= 0.06 sec

 Checking input...
 Passed
1


                                         ***  PROGRAM SYSTEM MOLPRO  ***
                         Copyright, University College Cardiff Consultants Limited, 2008

                                    Version 2010.1 linked May 16 2016 07:17:05


 **********************************************************************************************************************************
 LABEL *   Frequencies for min3                                                          
 Linux-4.4.3/n085(x86_64) 64 bit mpp version                                             DATE: 07-Mar-20          TIME: 04:27:35  
 **********************************************************************************************************************************

 SHA1:             9e8077add272b0f3cad6f7df79ec5211205f459d
 **********************************************************************************************************************************

 THRESHOLDS:

 ZERO    =  1.00D-12  ONEINT  =  1.00D-16  TWOINT  =  1.00D-16  PREFAC  =  1.00D-14  LOCALI  =  1.00D-09  EORDER  =  1.00D-04
 ENERGY  =  1.00D-10  ETEST   =  0.00D+00  EDENS   =  0.00D+00  THRDEDEF=  1.00D-06  GRADIENT=  1.00D-02  STEP    =  1.00D-03
 ORBITAL =  1.00D-10  CIVEC   =  1.00D-05  COEFF   =  1.00D-04  PRINTCI =  5.00D-02  PUNCHCI =  9.90D+01  OPTGRAD =  1.00D-06
 OPTENERG=  1.00D-06  OPTSTEP =  3.00D-04  THRGRAD =  1.00D-10  COMPRESS=  1.00D-13  VARMIN  =  1.00D-07  VARMAX  =  1.00D-03
 THRDOUB =  0.00D+00  THRDIV  =  1.00D-05  THRRED  =  1.00D-07  THRPSP  =  1.00D+00  THRDC   =  1.00D-10  THRCS   =  1.00D-10
 THRNRM  =  1.00D-08  THREQ   =  0.00D+00  THRDE   =  1.00D+00  THRREF  =  1.00D-05  SPARFAC =  1.00D+00  THRDLP  =  1.00D-07
 THRDIA  =  1.00D-10  THRDLS  =  1.00D-07  THRGPS  =  0.00D+00  THRKEX  =  0.00D+00  THRDIS  =  2.00D-01  THRVAR  =  1.00D-10
 THRLOC  =  1.00D-06  THRGAP  =  1.00D-06  THRLOCT = -1.00D+00  THRGAPT = -1.00D+00  THRORB  =  1.00D-06  THRMLTP =  0.00D+00
 THRCPQCI=  1.00D-10  KEXTA   =  0.00D+00  THRCOARS=  0.00D+00  SYMTOL  =  1.00D-06  GRADTOL =  1.00D-06  THROVL  =  1.00D-08
 THRORTH =  1.00D-08  GRID    =  1.00D-06  GRIDMAX =  1.00D-03  DTMAX   =  0.00D+00

 SETTING GEOMTYP        =    XYZ

 Variable memory set to 1000000000 words,  buffer space   230000 words

 SETTING BASIS          =    CC-PVDZ


 Recomputing integrals since basis changed


 Using spherical harmonics

 Library entry C      S cc-pVDZ              selected for orbital group  1
 Library entry C      P cc-pVDZ              selected for orbital group  1
 Library entry C      D cc-pVDZ              selected for orbital group  1
 Library entry O      S cc-pVDZ              selected for orbital group  2
 Library entry O      P cc-pVDZ              selected for orbital group  2
 Library entry O      D cc-pVDZ              selected for orbital group  2
 Library entry H      S cc-pVDZ              selected for orbital group  3
 Library entry H      P cc-pVDZ              selected for orbital group  3

1PROGRAM * SEWARD (Integral evaluation for generally contracted gaussian basis sets)     Author: Roland Lindh, 1990

 Geometry written to block  1 of record 700


 Point group  C1  



 ATOMIC COORDINATES

 NR  ATOM    CHARGE       X              Y              Z

   1  C       6.00    3.357976046    1.344348918   -0.089443368
   2  C       6.00    0.929389944   -0.113370094   -0.371319661
   3  C       6.00    0.851005696   -2.903174955    0.191651343
   4  O       8.00   -1.059697462    1.374274865    0.480848305
   5  O       8.00   -3.473014908    0.174363212   -0.227772083
   6  H       1.00    4.885647037    0.399612664   -1.155455816
   7  H       1.00    3.137751146    3.293580974   -0.806029364
   8  H       1.00    3.959209599    1.462738916    1.923080562
   9  H       1.00   -0.954068647   -3.746903975   -0.415898430
  10  H       1.00    2.419204742   -3.866705368   -0.784524387
  11  H       1.00    1.064119455   -3.250202576    2.254303395
  12  H       1.00   -3.756140086    1.040422125   -1.827712517

 Bond lengths in Bohr (Angstrom)

 1-2  2.846476668  1-6  2.088704811  1-7  2.088420481  1-8  2.103746788  2-3  2.847119878
     ( 1.506290578)     ( 1.105294982)     ( 1.105144521)     ( 1.113254854)     ( 1.506630951)

  2- 4  2.625975338   3- 9  2.083095958   3-10  2.083400624   3-11  2.102469769   4- 5  2.786760112
       ( 1.389606300)       ( 1.102326905)       ( 1.102488128)       ( 1.112579085)       ( 1.474689938)

  5-12  1.841202677
       ( 0.974322494)

 Bond angles

  1-2-3  120.37866573   1-2-4  108.90555081   2-1-6  109.98947225   2-1-7  110.73429490

  2- 1- 8  111.55454090   2- 3- 9  111.28876801   2- 3-10  109.86461123   2- 3-11  110.66678281

  2- 4- 5  109.23946113   3- 2- 4  118.03986083   4- 5-12   98.71931064   6- 1- 7  108.91518355

  6- 1- 8  107.73808609   7- 1- 8  107.80970783   9- 3-10  109.16401878   9- 3-11  107.88542002

 10- 3-11  107.88109053

 NUCLEAR CHARGE:                   41
 NUMBER OF PRIMITIVE AOS:         184
 NUMBER OF SYMMETRY AOS:          179
 NUMBER OF CONTRACTIONS:          105   ( 105A   )
 NUMBER OF CORE ORBITALS:           5   (   5A   )
 NUMBER OF VALENCE ORBITALS:       27   (  27A   )


 NUCLEAR REPULSION ENERGY  183.23945312


 Eigenvalues of metric

         1 0.345E-02 0.435E-02 0.105E-01 0.141E-01 0.182E-01 0.213E-01 0.331E-01 0.345E-01


 Contracted 2-electron integrals neglected if value below      1.0D-16
 AO integral compression algorithm  1   Integral accuracy      1.0D-16

     127.402 MB (compressed) written to integral file ( 93.4%)

     Node minimum: 34.341 MB, node maximum: 56.623 MB


 NUMBER OF SORTED TWO-ELECTRON INTEGRALS:    5164320.     BUFFER LENGTH:  32768
 NUMBER OF SEGMENTS:   1  SEGMENT LENGTH:    5164320      RECORD LENGTH: 524288

 Memory used in sort:       5.72 MW

 SORT1 READ    17075332. AND WROTE     5135928. INTEGRALS IN     15 RECORDS. CPU TIME:     0.29 SEC, REAL TIME:     0.34 SEC
 SORT2 READ    15396693. AND WROTE    15487395. INTEGRALS IN    393 RECORDS. CPU TIME:     0.09 SEC, REAL TIME:     0.13 SEC

 Node minimum:     5160610.  Node maximum:     5164320. integrals

 OPERATOR DM      FOR CENTER  0  COORDINATES:    0.000000    0.000000    0.000000


 **********************************************************************************************************************************
 DATASETS  * FILE   NREC   LENGTH (MB)   RECORD NAMES
              1      18        3.17       500      610      700      900      950      970     1000      129      960     1100   
                                          VAR    BASINP    GEOM    SYMINP    ZMAT    AOBASIS   BASIS     P2S    ABASIS      S 
                                         1400     1410     1200     1210     1080     1600     1650     1700   
                                           T        V       H0       H01     AOSYM     SMH    MOLCAS    OPER   

 PROGRAMS   *        TOTAL       INT
 CPU TIMES  *         1.12      1.03
 REAL TIME  *         1.55 SEC
 DISK USED  *       318.33 MB      
 GA USED    *         0.00 MB       (max)       0.00 MB       (current)
 **********************************************************************************************************************************

1PROGRAM * RHF-SCF (OPEN SHELL)       Authors: W. Meyer, H.-J. Werner


 NUMBER OF ELECTRONS:      21+   20-    SPACE SYMMETRY=1    SPIN SYMMETRY: Doublet 
 CONVERGENCE THRESHOLDS:    1.00E-10 (Density)    1.00E-11 (Energy)
 MAX. NUMBER OF ITERATIONS:      200
 INTERPOLATION TYPE:            DIIS
 INTERPOLATION STEPS:              2 (START)      1 (STEP)
 LEVEL SHIFTS:                 -0.30 (CLOSED)  0.00 (OPEN) 



 Orbital guess generated from atomic densities. Full valence occupancy:   32

 Molecular orbital dump at record        2100.2

 ITERATION    DDIFF          GRAD             ENERGY        2-EL.EN.            DIPOLE MOMENTS         DIIS
    1      0.000D+00      0.000D+00      -267.17828279    555.849463    0.57046    0.05004   -0.74921    0
    2      0.000D+00      0.617D-02      -267.24900275    555.771409    0.41492   -0.13164   -0.59853    1
    3      0.928D-02      0.214D-02      -267.26118018    555.689254    0.39481   -0.05987   -0.62590    2
    4      0.336D-02      0.912D-03      -267.26478920    555.841756    0.38032   -0.10018   -0.64231    3
    5      0.186D-02      0.364D-03      -267.26535838    555.813190    0.38291   -0.09375   -0.63528    4
    6      0.792D-03      0.110D-03      -267.26543483    555.799433    0.38118   -0.09358   -0.63803    5
    7      0.277D-03      0.511D-04      -267.26545499    555.796436    0.38048   -0.09333   -0.63752    6
    8      0.144D-03      0.273D-04      -267.26546106    555.794491    0.38075   -0.09346   -0.63773    7
    9      0.925D-04      0.115D-04      -267.26546198    555.794802    0.38094   -0.09341   -0.63749    8
   10      0.366D-04      0.501D-05      -267.26546213    555.795416    0.38120   -0.09343   -0.63755    9
   11      0.147D-04      0.196D-05      -267.26546216    555.795257    0.38125   -0.09342   -0.63756    9
   12      0.651D-05      0.670D-06      -267.26546216    555.795392    0.38127   -0.09342   -0.63755    9
   13      0.227D-05      0.226D-06      -267.26546216    555.795307    0.38127   -0.09342   -0.63755    9
   14      0.632D-06      0.757D-07      -267.26546216    555.795316    0.38127   -0.09342   -0.63755    9
   15      0.193D-06      0.300D-07      -267.26546216    555.795312    0.38127   -0.09342   -0.63755    9
   16      0.824D-07      0.145D-07      -267.26546216    555.795314    0.38127   -0.09342   -0.63755    9
   17      0.374D-07      0.750D-08      -267.26546216    555.795314    0.38127   -0.09342   -0.63755    9
   18      0.222D-07      0.341D-08      -267.26546216    555.795314    0.38127   -0.09342   -0.63755    9
   19      0.114D-07      0.133D-08      -267.26546216    555.795314    0.38127   -0.09342   -0.63755    9
   20      0.444D-08      0.567D-09      -267.26546216    555.795314    0.38127   -0.09342   -0.63755    9
   21      0.166D-08      0.286D-09      -267.26546216    555.795314    0.38127   -0.09342   -0.63755    9
   22      0.753D-09      0.161D-09      -267.26546216    555.795314    0.38127   -0.09342   -0.63755    9
   23      0.445D-09      0.794D-10      -267.26546216    555.795314    0.38127   -0.09342   -0.63755    9
   24      0.263D-09      0.316D-10      -267.26546216    555.795314    0.38127   -0.09342   -0.63755    9
   25      0.930D-10      0.129D-10      -267.26546216    555.795314    0.38127   -0.09342   -0.63755    0

 Final alpha occupancy:  21
 Final beta  occupancy:  20

 !RHF STATE 1.1 Energy               -267.265462162036
 Nuclear energy                       183.23945312
 One-electron energy                 -728.40257216
 Two-electron energy                  277.89765689
 Virial quotient                       -1.00153385
 !RHF STATE 1.1 Dipole moment           0.38127150    -0.09342277    -0.63755232
 Dipole moment /Debye                   0.96903203    -0.23744145    -1.62039023

 Orbital energies:

         1.1          2.1          3.1          4.1          5.1          6.1          7.1          8.1          9.1         10.1
    -20.630440   -20.628789   -11.279236   -11.237882   -11.231716    -1.470147    -1.240708    -1.023342    -0.945543    -0.768567

        11.1         12.1         13.1         14.1         15.1         16.1         17.1         18.1         19.1         20.1
     -0.704650    -0.642993    -0.626783    -0.588857    -0.545299    -0.543649    -0.539102    -0.517017    -0.492999    -0.469757

        21.1         22.1         23.1
     -0.352307     0.181337     0.183567


 **********************************************************************************************************************************
 DATASETS  * FILE   NREC   LENGTH (MB)   RECORD NAMES
              1      18        3.17       500      610      700      900      950      970     1000      129      960     1100   
                                          VAR    BASINP    GEOM    SYMINP    ZMAT    AOBASIS   BASIS     P2S    ABASIS      S 
                                         1400     1410     1200     1210     1080     1600     1650     1700   
                                           T        V       H0       H01     AOSYM     SMH    MOLCAS    OPER   

              2       3        0.77       700     1000     2100   
                                         GEOM     BASIS     RHF  

 PROGRAMS   *        TOTAL       RHF       INT
 CPU TIMES  *         2.52      1.40      1.03
 REAL TIME  *         3.34 SEC
 DISK USED  *       334.90 MB      
 SF USED    *         0.04 MB      
 GA USED    *         0.00 MB       (max)       0.00 MB       (current)
 **********************************************************************************************************************************


1PROGRAM * CCSD (Unrestricted open-shell coupled cluster)     Authors: C. Hampel, H.-J. Werner, 1991, M. Deegan, P.J. Knowles, 1992


 Convergence thresholds:  THRVAR = 1.00D-08  THRDEN = 1.00D-10

 CCSD(T)     terms to be evaluated (factor= 1.000)


 Number of core orbitals:           5 (   5 )
 Number of closed-shell orbitals:  15 (  15 )
 Number of active  orbitals:        1 (   1 )
 Number of external orbitals:      84 (  84 )

 Memory could be reduced to 24.91 Mwords without degradation in triples

 Number of N-1 electron functions:              31
 Number of N-2 electron functions:             465
 Number of singly external CSFs:              2635
 Number of doubly external CSFs:           2537250
 Total number of CSFs:                     2539885

 Molecular orbitals read from record     2100.2  Type=RHF/CANONICAL (state 1.1)

 Integral transformation finished. Total CPU:   0.92 sec, npass=  1  Memory used:  12.63 MW

 Starting RMP2 calculation

 ITER.      SQ.NORM     CORR.ENERGY   TOTAL ENERGY   ENERGY CHANGE        DEN1      VAR(S)    VAR(P)  DIIS     TIME
   1      1.24296343    -0.78632149  -268.05178365    -0.78632149    -0.00304844  0.20D-04  0.11D-02  1  1     1.25
   2      1.24560299    -0.78960898  -268.05507114    -0.00328749    -0.00000474  0.54D-06  0.19D-05  2  2     1.52
   3      1.24566847    -0.78965101  -268.05511317    -0.00004202    -0.00000003  0.16D-07  0.67D-08  3  3     1.82
   4      1.24566942    -0.78965101  -268.05511317    -0.00000000    -0.00000000  0.27D-09  0.38D-10  4  4     2.14
   5      1.24566950    -0.78965104  -268.05511320    -0.00000003    -0.00000000  0.25D-11  0.65D-12  5  5     2.48
   6      1.24566952    -0.78965105  -268.05511321    -0.00000001    -0.00000000  0.28D-13  0.86D-14  6  6     2.84
   7      1.24566952    -0.78965105  -268.05511321     0.00000000    -0.00000000  0.47D-15  0.12D-15  6  1     3.20
   8      1.24566952    -0.78965105  -268.05511321     0.00000000    -0.00000000  0.59D-17  0.13D-17  6  2     3.57

 Norm of t1 vector:      0.03892226      S-energy:    -0.00227094      T1 diagnostic:  0.00054999
 Norm of t2 vector:      0.49412000      P-energy:    -0.78738011
                                         Alpha-Beta:  -0.59336345
                                         Alpha-Alpha: -0.10093860
                                         Beta-Beta:   -0.09307806

 Spin contamination <S**2-Sz**2-Sz>     0.00103996
  Reference energy                   -267.265462162035
  RHF-RMP2 correlation energy          -0.789651047043
 !RHF-RMP2 energy                    -268.055113209078

 Starting UCCSD calculation

 ITER.      SQ.NORM     CORR.ENERGY   TOTAL ENERGY   ENERGY CHANGE        DEN1      VAR(S)    VAR(P)  DIIS     TIME
   1      1.26272632    -0.80899419  -268.07445635    -0.80899419    -0.02514754  0.38D-02  0.59D-02  1  1     8.28
   2      1.29148172    -0.83639326  -268.10185542    -0.02739906    -0.00200987  0.22D-03  0.66D-03  2  2    12.98
   3      1.30141469    -0.84088774  -268.10634991    -0.00449449    -0.00032451  0.19D-03  0.56D-04  3  3    17.72
   4      1.30632570    -0.84236403  -268.10782619    -0.00147629    -0.00007208  0.43D-04  0.14D-04  4  4    22.49
   5      1.30905570    -0.84275212  -268.10821428    -0.00038809    -0.00002367  0.19D-04  0.32D-05  5  5    27.26
   6      1.31099485    -0.84295659  -268.10841875    -0.00020447    -0.00000646  0.42D-05  0.12D-05  6  6    32.07
   7      1.31194413    -0.84301538  -268.10847754    -0.00005879    -0.00000208  0.14D-05  0.37D-06  6  2    36.85
   8      1.31238576    -0.84305806  -268.10852022    -0.00004268    -0.00000065  0.45D-06  0.11D-06  6  1    41.63
   9      1.31257096    -0.84306264  -268.10852480    -0.00000458    -0.00000022  0.15D-06  0.35D-07  6  4    46.47
  10      1.31263405    -0.84306555  -268.10852772    -0.00000292    -0.00000005  0.35D-07  0.95D-08  6  3    51.97
  11      1.31266358    -0.84306430  -268.10852646     0.00000125    -0.00000002  0.13D-07  0.28D-08  6  5    56.80
  12      1.31267397    -0.84306405  -268.10852621     0.00000026    -0.00000000  0.26D-08  0.95D-09  6  6    62.42
  13      1.31267283    -0.84306313  -268.10852530     0.00000091    -0.00000000  0.96D-09  0.28D-09  6  2    67.21
  14      1.31266762    -0.84306229  -268.10852445     0.00000084    -0.00000000  0.21D-09  0.67D-10  6  1    72.01
  15      1.31266355    -0.84306170  -268.10852386     0.00000059    -0.00000000  0.78D-10  0.19D-10  6  4    76.82
  16      1.31266036    -0.84306132  -268.10852348     0.00000038    -0.00000000  0.28D-10  0.63D-11  6  3    81.62
  17      1.31265816    -0.84306108  -268.10852324     0.00000024    -0.00000000  0.10D-10  0.24D-11  6  5    86.43
  18      1.31265726    -0.84306102  -268.10852318     0.00000006    -0.00000000  0.41D-11  0.87D-12  6  6    91.24
  19      1.31265665    -0.84306099  -268.10852315     0.00000003    -0.00000000  0.16D-11  0.37D-12  6  2    96.05
  20      1.31265633    -0.84306097  -268.10852314     0.00000001    -0.00000000  0.60D-12  0.13D-12  6  1   100.87
  21      1.31265617    -0.84306096  -268.10852313     0.00000001    -0.00000000  0.28D-12  0.58D-13  6  4   105.69
  22      1.31265605    -0.84306096  -268.10852312     0.00000001    -0.00000000  0.73D-13  0.21D-13  6  3   110.50
  23      1.31265599    -0.84306095  -268.10852311     0.00000000    -0.00000000  0.21D-13  0.62D-14  6  5   115.34
  24      1.31265598    -0.84306095  -268.10852312    -0.00000000    -0.00000000  0.67D-14  0.22D-14  6  6   120.17
  25      1.31265599    -0.84306095  -268.10852312    -0.00000000    -0.00000000  0.21D-14  0.52D-15  6  2   124.99
  26      1.31265599    -0.84306096  -268.10852312    -0.00000000    -0.00000000  0.77D-15  0.15D-15  6  1   129.80
  27      1.31265600    -0.84306096  -268.10852312    -0.00000000    -0.00000000  0.20D-15  0.62D-16  6  3   134.62
  28      1.31265601    -0.84306096  -268.10852312    -0.00000000    -0.00000000  0.30D-16  0.11D-16  6  4   140.91
  29      1.31265601    -0.84306096  -268.10852312    -0.00000000    -0.00000000  0.71D-17  0.29D-17  6  5   147.21
  30      1.31265601    -0.84306096  -268.10852312    -0.00000000    -0.00000000  0.15D-17  0.54D-18  6  6   153.52
  31      1.31265601    -0.84306096  -268.10852312    -0.00000000    -0.00000000  0.35D-18  0.10D-18  6  2   160.04

 Norm of t1 vector:      0.13870223      S-energy:    -0.00282027      T1 diagnostic:  0.01616806
                                                                       D1 diagnostic:  0.06282718
 Norm of t2 vector:      0.54168044      P-energy:    -0.84024069
                                         Alpha-Beta:  -0.66479144
                                         Alpha-Alpha: -0.09147574
                                         Beta-Beta:   -0.08397350

 Spin contamination <S**2-Sz**2-Sz>     0.00217157

 Memory could be reduced to 28.85 Mwords without degradation in triples
 

 RESULTS
 =======

  Reference energy                   -267.265462162035
  UCCSD singles energy                 -0.002820271184
  UCCSD pair energy                    -0.840240685610
  UCCSD correlation energy             -0.843060956793
  Triples (T) contribution             -0.024968285670
  Total correlation energy             -0.868029242464
 
  RHF-UCCSD energy                   -268.108523118828
  RHF-UCCSD[T] energy                -268.134826884157
  RHF-UCCSD-T energy                 -268.133070094857
 !RHF-UCCSD(T) energy                -268.133491404498

 Program statistics:

 Available memory in ccsd:               999997692
 Min. memory needed in ccsd:               7337057
 Max. memory used in ccsd:                10523002
 Max. memory used in cckext:              10867977 (31 integral passes)
 Max. memory used in cckint:              12633073 ( 1 integral passes)



 **********************************************************************************************************************************
 DATASETS  * FILE   NREC   LENGTH (MB)   RECORD NAMES
              1      18        3.17       500      610      700      900      950      970     1000      129      960     1100   
                                          VAR    BASINP    GEOM    SYMINP    ZMAT    AOBASIS   BASIS     P2S    ABASIS      S 
                                         1400     1410     1200     1210     1080     1600     1650     1700   
                                           T        V       H0       H01     AOSYM     SMH    MOLCAS    OPER   

              2       3        0.77       700     1000     2100   
                                         GEOM     BASIS     RHF  

 PROGRAMS   *        TOTAL  UCCSD(T)       RHF       INT
 CPU TIMES  *       207.40    204.89      1.40      1.03
 REAL TIME  *       218.44 SEC
 DISK USED  *         1.30 GB      
 SF USED    *       553.73 MB      
 GA USED    *         0.00 MB       (max)       0.00 MB       (current)
 **********************************************************************************************************************************

        UCCSD(T)        RHF-SCF 
   -268.13349140   -267.26546216
 **********************************************************************************************************************************
 Variable memory released
