
    -----------------------------------------------------------------------
          Psi4: An Open-Source Ab Initio Electronic Structure Package
                               Psi4 1.4a2.dev478 

                         Git: Rev {master} f722895 dirty


    R. M. Parrish, L. A. Burns, D. G. A. Smith, A. C. Simmonett,
    A. E. DePrince III, E. G. Hohenstein, U. Bozkaya, A. Yu. Sokolov,
    R. Di Remigio, R. M. Richard, J. F. Gonthier, A. M. James,
    H. R. McAlexander, A. Kumar, M. Saitow, X. Wang, B. P. Pritchard,
    P. Verma, H. F. Schaefer III, K. Patkowski, R. A. King, E. F. Valeev,
    F. A. Evangelista, J. M. Turney, T. D. Crawford, and C. D. Sherrill,
    J. Chem. Theory Comput. 13(7) pp 3185--3197 (2017).
    (doi: 10.1021/acs.jctc.7b00174)


                         Additional Contributions by
    P. Kraus, H. Kruse, M. H. Lechner, M. C. Schieber, R. A. Shaw,
    A. Alenaizan, R. Galvelis, Z. L. Glick, S. Lehtola, and J. P. Misiewicz

    -----------------------------------------------------------------------


    Psi4 started on: Monday, 08 June 2020 01:41PM

    Process ID: 28009
    Host:       n040
    PSIDATADIR: /opt/psi/4/master/share/psi4
    Memory:     500.0 MiB
    Threads:    4
    
  ==> Input File <==

--------------------------------------------------------------------------
set memory 40Gb

molecule {
    C   -1.174199517890   -0.774961658783   -0.000122119707
    H   -1.619191780690   -1.211086467183   -0.891051837007
    H   -1.619266333190   -1.211279077683    0.890674642893
    C   -1.174315833390    0.774780790217   -0.000502810893
    H   -1.619236335893    1.210791887975    0.891593300669
    H   -1.619595655488    1.211078183761   -0.890127130456
    C    0.352869786105    0.922222839497    0.000294514435
    H    0.838734033633    1.892355542123    0.000347160921
    O    0.767194319316    0.000214803412   -1.027276928744
    C    0.353009312569   -0.922168538428    0.000020079816
    H    0.839025812168   -1.892224238051   -0.000224847205
    O    0.767588600979   -0.000096901647    1.027433432736
}

set {
    e_convergence 10
    d_convergence 10
    freeze_core True
    basis_guess True
    cc_type conv
    maxiter 300
}

E = energy('mp2/heavy-aug-cc-pV(Q+d)Z')
psi4.print_out("\n========================OPTAVC-XTPL==========================\n\n")
psi4.print_out("MP2/QZ correlation energy {}\n".format(variable("MP2 CORRELATION ENERGY")))
psi4.print_out("SCF/QZ reference energy {}\n".format(variable("CURRENT REFERENCE ENERGY")))
psi4.print_out("\n\n=============================================================\n")

E = energy('mp2/heavy-aug-cc-pV(T+d)Z')
psi4.print_out("\n========================OPTAVC-XTPL==========================\n\n")
psi4.print_out("MP2/TZ correlation energy {}".format(variable("MP2 CORRELATION ENERGY")))
psi4.print_out("\n\n=============================================================\n")
--------------------------------------------------------------------------

Scratch directory: /tmp/

Scratch directory: /tmp/
    SCF Algorithm Type (re)set to DF.

*** tstart() called on n040
*** at Mon Jun  8 13:41:36 2020


  //>>>>>>>>>>>>>>>>>>>>>>>>>>>>>>>>>>>//
  //      Guess SCF, pcseg-0 Basis     //
  //<<<<<<<<<<<<<<<<<<<<<<<<<<<<<<<<<<<//

   => Loading Basis Set <=

    Name: PCSEG-0
    Role: ORBITAL
    Keyword: BASIS
    atoms 1, 4, 7, 10     entry C          line    71 file /opt/psi/4/master/share/psi4/basis/pcseg-0.gbs 
    atoms 2-3, 5-6, 8, 11 entry H          line    13 file /opt/psi/4/master/share/psi4/basis/pcseg-0.gbs 
    atoms 9, 12           entry O          line   103 file /opt/psi/4/master/share/psi4/basis/pcseg-0.gbs 


         ---------------------------------------------------------
                           SCF Castup computation                  
         ---------------------------------------------------------
                                   SCF
               by Justin Turney, Rob Parrish, Andy Simmonett
                          and Daniel G. A. Smith
                              RHF Reference
                        4 Threads,    500 MiB Core
         ---------------------------------------------------------

  ==> Geometry <==

    Molecular point group: c1
    Full point group: C1

    Geometry (in Angstrom), charge = 0, multiplicity = 1:

       Center              X                  Y                   Z               Mass       
    ------------   -----------------  -----------------  -----------------  -----------------
         C           -1.174199517890    -0.774961658783    -0.000122119707    12.000000000000
         H           -1.619191780690    -1.211086467183    -0.891051837007     1.007825032230
         H           -1.619266333190    -1.211279077683     0.890674642893     1.007825032230
         C           -1.174315833390     0.774780790217    -0.000502810893    12.000000000000
         H           -1.619236335893     1.210791887975     0.891593300669     1.007825032230
         H           -1.619595655488     1.211078183761    -0.890127130456     1.007825032230
         C            0.352869786105     0.922222839497     0.000294514435    12.000000000000
         H            0.838734033633     1.892355542123     0.000347160921     1.007825032230
         O            0.767194319316     0.000214803412    -1.027276928744    15.994914619570
         C            0.353009312569    -0.922168538428     0.000020079816    12.000000000000
         H            0.839025812168    -1.892224238051    -0.000224847205     1.007825032230
         O            0.767588600979    -0.000096901647     1.027433432736    15.994914619570

  Running in c1 symmetry.

  Rotational constants: A =      0.19853  B =      0.16229  C =      0.14676 [cm^-1]
  Rotational constants: A =   5951.63402  B =   4865.31295  C =   4399.89564 [MHz]
  Nuclear repulsion =  257.009781529437873

  Charge       = 0
  Multiplicity = 1
  Electrons    = 46
  Nalpha       = 23
  Nbeta        = 23

  ==> Algorithm <==

  SCF Algorithm Type is DF.
  DIIS enabled.
  MOM disabled.
  Fractional occupation disabled.
  Guess Type is SAD.
  Energy threshold   = 1.00e-10
  Density threshold  = 1.00e-10
  Integral threshold = 0.00e+00

  ==> Primary Basis <==

  Basis Set: PCSEG-0
    Blend: PCSEG-0
    Number of shells: 42
    Number of basis function: 66
    Number of Cartesian functions: 66
    Spherical Harmonics?: true
    Max angular momentum: 1

   => Loading Basis Set <=

    Name: (PCSEG-0 AUX)
    Role: JKFIT
    Keyword: DF_BASIS_SCF
    atoms 1, 4, 7, 10     entry C          line   198 file /opt/psi/4/master/share/psi4/basis/def2-universal-jkfit.gbs 
    atoms 2-3, 5-6, 8, 11 entry H          line    18 file /opt/psi/4/master/share/psi4/basis/def2-universal-jkfit.gbs 
    atoms 9, 12           entry O          line   318 file /opt/psi/4/master/share/psi4/basis/def2-universal-jkfit.gbs 

  ==> Integral Setup <==

  ==> DiskDFJK: Density-Fitted J/K Matrices <==

    J tasked:                  Yes
    K tasked:                  Yes
    wK tasked:                  No
    OpenMP threads:              4
    Integrals threads:           4
    Memory [MiB]:              375
    Algorithm:                Core
    Integral Cache:           NONE
    Schwarz Cutoff:          1E-12
    Fitting Condition:       1E-10

   => Auxiliary Basis Set <=

  Basis Set: (PCSEG-0 AUX)
    Blend: DEF2-UNIVERSAL-JKFIT
    Number of shells: 186
    Number of basis function: 562
    Number of Cartesian functions: 662
    Spherical Harmonics?: true
    Max angular momentum: 4

  Minimum eigenvalue in the overlap matrix is 1.2857615994E-03.
  Reciprocal condition number of the overlap matrix is 2.1236683211E-04.
    Using symmetric orthogonalization.

  ==> Pre-Iterations <==

  SCF Guess: Superposition of Atomic Densities via on-the-fly atomic UHF (no occupation information).

   -------------------------
    Irrep   Nso     Nmo    
   -------------------------
     A         66      66 
   -------------------------
    Total      66      66
   -------------------------

  ==> Iterations <==

                           Total Energy        Delta E     RMS |[F,P]|

   @DF-RHF iter SAD:  -303.69612647456938   -3.03696e+02   0.00000e+00 
   @DF-RHF iter   1:  -303.56575512491821    1.30371e-01   7.23981e-03 DIIS
   @DF-RHF iter   2:  -303.66478936849722   -9.90342e-02   3.96857e-03 DIIS
   @DF-RHF iter   3:  -303.69039938157471   -2.56100e-02   6.19744e-04 DIIS
   @DF-RHF iter   4:  -303.69158423790145   -1.18486e-03   1.96389e-04 DIIS
   @DF-RHF iter   5:  -303.69167994328063   -9.57054e-05   4.10598e-05 DIIS
   @DF-RHF iter   6:  -303.69168753495251   -7.59167e-06   8.37964e-06 DIIS
   @DF-RHF iter   7:  -303.69168793787372   -4.02921e-07   1.68820e-06 DIIS
   @DF-RHF iter   8:  -303.69168795198664   -1.41129e-08   5.42212e-07 DIIS
   @DF-RHF iter   9:  -303.69168795340443   -1.41779e-09   1.09377e-07 DIIS
   @DF-RHF iter  10:  -303.69168795348133   -7.69091e-11   1.91293e-08 DIIS
   @DF-RHF iter  11:  -303.69168795348344   -2.10321e-12   5.97520e-09 DIIS
   @DF-RHF iter  12:  -303.69168795348315    2.84217e-13   2.37772e-09 DIIS
   @DF-RHF iter  13:  -303.69168795348355   -3.97904e-13   2.16758e-10 DIIS
   @DF-RHF iter  14:  -303.69168795348344    1.13687e-13   7.08336e-11 DIIS
  Energy and wave function converged.


  ==> Post-Iterations <==

    Orbital Energies [Eh]
    ---------------------

    Doubly Occupied:                                                      

       1A    -20.584551     2A    -20.584450     3A    -11.369617  
       4A    -11.369613     5A    -11.256150     6A    -11.255753  
       7A     -1.537595     8A     -1.312995     9A     -1.091787  
      10A     -1.008909    11A     -0.821913    12A     -0.790170  
      13A     -0.768290    14A     -0.680698    15A     -0.662953  
      16A     -0.658514    17A     -0.552299    18A     -0.534500  
      19A     -0.527389    20A     -0.524503    21A     -0.519487  
      22A     -0.467037    23A     -0.443241  

    Virtual:                                                              

      24A      0.203076    25A      0.231193    26A      0.236103  
      27A      0.242166    28A      0.253176    29A      0.267378  
      30A      0.314391    31A      0.350237    32A      0.350954  
      33A      0.382135    34A      0.406827    35A      0.464628  
      36A      0.570266    37A      0.796411    38A      0.807887  
      39A      0.820766    40A      0.925688    41A      0.932812  
      42A      0.946977    43A      0.949994    44A      1.003365  
      45A      1.005052    46A      1.030115    47A      1.060608  
      48A      1.072102    49A      1.134172    50A      1.148937  
      51A      1.170424    52A      1.173946    53A      1.210913  
      54A      1.237899    55A      1.424565    56A      1.454750  
      57A      1.482487    58A      1.522008    59A      1.691064  
      60A      1.705476    61A      1.927931    62A      1.950917  
      63A      2.140069    64A      2.299075    65A      2.374981  
      66A      2.441140  

    Final Occupation by Irrep:
              A 
    DOCC [    23 ]

  @DF-RHF Final Energy:  -303.69168795348344

   => Energetics <=

    Nuclear Repulsion Energy =            257.0097815294378734
    One-Electron Energy =                -922.7581084263043749
    Two-Electron Energy =                 362.0566389433830636
    Total Energy =                       -303.6916879534834379

Computation Completed

  //>>>>>>>>>>>>>>>>>>>>>>>>>>>>>>>>>>>//
  //                SCF                //
  //<<<<<<<<<<<<<<<<<<<<<<<<<<<<<<<<<<<//

   => Loading Basis Set <=

    Name: HEAVY-AUG-CC-PV(Q+D)Z
    Role: ORBITAL
    Keyword: BASIS
    atoms 1, 4, 7, 10     entry C          line   333 file /opt/psi/4/master/share/psi4/basis/heavy-aug-cc-pv_qpd_z.gbs 
    atoms 2-3, 5-6, 8, 11 entry H          line    86 file /opt/psi/4/master/share/psi4/basis/heavy-aug-cc-pv_qpd_z.gbs 
    atoms 9, 12           entry O          line   453 file /opt/psi/4/master/share/psi4/basis/heavy-aug-cc-pv_qpd_z.gbs 


         ---------------------------------------------------------
                                   SCF
               by Justin Turney, Rob Parrish, Andy Simmonett
                          and Daniel G. A. Smith
                              RHF Reference
                        4 Threads,    500 MiB Core
         ---------------------------------------------------------

  ==> Geometry <==

    Molecular point group: c1
    Full point group: C1

    Geometry (in Angstrom), charge = 0, multiplicity = 1:

       Center              X                  Y                   Z               Mass       
    ------------   -----------------  -----------------  -----------------  -----------------
         C           -1.174199517890    -0.774961658783    -0.000122119707    12.000000000000
         H           -1.619191780690    -1.211086467183    -0.891051837007     1.007825032230
         H           -1.619266333190    -1.211279077683     0.890674642893     1.007825032230
         C           -1.174315833390     0.774780790217    -0.000502810893    12.000000000000
         H           -1.619236335893     1.210791887975     0.891593300669     1.007825032230
         H           -1.619595655488     1.211078183761    -0.890127130456     1.007825032230
         C            0.352869786105     0.922222839497     0.000294514435    12.000000000000
         H            0.838734033633     1.892355542123     0.000347160921     1.007825032230
         O            0.767194319316     0.000214803412    -1.027276928744    15.994914619570
         C            0.353009312569    -0.922168538428     0.000020079816    12.000000000000
         H            0.839025812168    -1.892224238051    -0.000224847205     1.007825032230
         O            0.767588600979    -0.000096901647     1.027433432736    15.994914619570

  Running in c1 symmetry.

  Rotational constants: A =      0.19853  B =      0.16229  C =      0.14676 [cm^-1]
  Rotational constants: A =   5951.63402  B =   4865.31295  C =   4399.89564 [MHz]
  Nuclear repulsion =  257.009781529437873

  Charge       = 0
  Multiplicity = 1
  Electrons    = 46
  Nalpha       = 23
  Nbeta        = 23

  ==> Algorithm <==

  SCF Algorithm Type is DF.
  DIIS enabled.
  MOM disabled.
  Fractional occupation disabled.
  Guess Type is SAD.
  Energy threshold   = 1.00e-10
  Density threshold  = 1.00e-10
  Integral threshold = 0.00e+00

  ==> Primary Basis <==

  Basis Set: HEAVY-AUG-CC-PV(Q+D)Z
    Blend: HEAVY-AUG-CC-PV(Q+D)Z
    Number of shells: 180
    Number of basis function: 660
    Number of Cartesian functions: 840
    Spherical Harmonics?: true
    Max angular momentum: 4

   => Loading Basis Set <=

    Name: (HEAVY-AUG-CC-PV(Q+D)Z AUX)
    Role: JKFIT
    Keyword: DF_BASIS_SCF
    atoms 1, 4, 7, 10     entry C          line   214 file /opt/psi/4/master/share/psi4/basis/heavy-aug-cc-pvqz-jkfit.gbs 
    atoms 2-3, 5-6, 8, 11 entry H          line   116 file /opt/psi/4/master/share/psi4/basis/heavy-aug-cc-pvqz-jkfit.gbs 
    atoms 9, 12           entry O          line   354 file /opt/psi/4/master/share/psi4/basis/heavy-aug-cc-pvqz-jkfit.gbs 


  Computing basis projection from PCSEG-0 to HEAVY-AUG-CC-PV(Q+D)Z

  ==> Integral Setup <==

  ==> DiskDFJK: Density-Fitted J/K Matrices <==

    J tasked:                  Yes
    K tasked:                  Yes
    wK tasked:                  No
    OpenMP threads:              4
    Integrals threads:           4
    Memory [MiB]:              375
    Algorithm:                Disk
    Integral Cache:           NONE
    Schwarz Cutoff:          1E-12
    Fitting Condition:       1E-10

   => Auxiliary Basis Set <=

  Basis Set: (HEAVY-AUG-CC-PV(Q+D)Z AUX)
    Blend: HEAVY-AUG-CC-PVQZ-JKFIT
    Number of shells: 282
    Number of basis function: 1158
    Number of Cartesian functions: 1584
    Spherical Harmonics?: true
    Max angular momentum: 5

  Minimum eigenvalue in the overlap matrix is 1.0918170927E-06.
  Reciprocal condition number of the overlap matrix is 7.0013065368E-08.
    Using symmetric orthogonalization.

  ==> Pre-Iterations <==

  SCF Guess: Orbitals guess was supplied from a previous computation.

   -------------------------
    Irrep   Nso     Nmo    
   -------------------------
     A        660     660 
   -------------------------
    Total     660     660
   -------------------------

  ==> Iterations <==

                           Total Energy        Delta E     RMS |[F,P]|

   @DF-RHF iter   0:  -304.22239133236434   -3.04222e+02   4.48097e-03 
   @DF-RHF iter   1:  -304.73372029251243   -5.11329e-01   3.36607e-04 DIIS
   @DF-RHF iter   2:  -304.74975234407742   -1.60321e-02   1.53689e-04 DIIS
   @DF-RHF iter   3:  -304.75362561960424   -3.87328e-03   2.81213e-05 DIIS
   @DF-RHF iter   4:  -304.75390265593251   -2.77036e-04   8.45861e-06 DIIS
   @DF-RHF iter   5:  -304.75392494519758   -2.22893e-05   3.57772e-06 DIIS
   @DF-RHF iter   6:  -304.75392875152028   -3.80632e-06   8.40631e-07 DIIS
   @DF-RHF iter   7:  -304.75392906030766   -3.08787e-07   1.79412e-07 DIIS
   @DF-RHF iter   8:  -304.75392907536013   -1.50525e-08   4.57799e-08 DIIS
   @DF-RHF iter   9:  -304.75392907645244   -1.09230e-09   1.49223e-08 DIIS
   @DF-RHF iter  10:  -304.75392907654157   -8.91305e-11   3.83297e-09 DIIS
   @DF-RHF iter  11:  -304.75392907654719   -5.62750e-12   1.00590e-09 DIIS
   @DF-RHF iter  12:  -304.75392907654862   -1.42109e-12   3.53093e-10 DIIS
   @DF-RHF iter  13:  -304.75392907654725    1.36424e-12   1.61714e-10 DIIS
   @DF-RHF iter  14:  -304.75392907654731   -5.68434e-14   3.07963e-11 DIIS
  Energy and wave function converged.


  ==> Post-Iterations <==

    Orbital Energies [Eh]
    ---------------------

    Doubly Occupied:                                                      

       1A    -20.565212     2A    -20.565125     3A    -11.348548  
       4A    -11.348521     5A    -11.236616     6A    -11.236049  
       7A     -1.490868     8A     -1.292241     9A     -1.067412  
      10A     -0.987922    11A     -0.810295    12A     -0.789510  
      13A     -0.746612    14A     -0.672477    15A     -0.651330  
      16A     -0.646543    17A     -0.534299    18A     -0.524580  
      19A     -0.519533    20A     -0.512152    21A     -0.510098  
      22A     -0.459736    23A     -0.433686  

    Virtual:                                                              

      24A      0.041409    25A      0.042855    26A      0.050667  
      27A      0.062624    28A      0.063925    29A      0.079821  
      30A      0.080142    31A      0.083438    32A      0.101425  
      33A      0.110250    34A      0.111675    35A      0.112246  
      36A      0.139346    37A      0.151646    38A      0.166298  
      39A      0.171438    40A      0.178459    41A      0.178825  
      42A      0.188832    43A      0.188972    44A      0.199063  
      45A      0.207272    46A      0.226476    47A      0.227210  
      48A      0.229646    49A      0.257265    50A      0.260925  
      51A      0.270286    52A      0.270857    53A      0.271815  
      54A      0.286589    55A      0.288150    56A      0.291052  
      57A      0.301094    58A      0.316671    59A      0.320017  
      60A      0.325043    61A      0.333737    62A      0.337641  
      63A      0.355684    64A      0.358154    65A      0.369551  
      66A      0.380980    67A      0.388148    68A      0.389573  
      69A      0.391546    70A      0.391724    71A      0.395734  
      72A      0.398866    73A      0.412345    74A      0.420390  
      75A      0.420639    76A      0.440269    77A      0.453058  
      78A      0.456214    79A      0.462779    80A      0.495066  
      81A      0.515266    82A      0.518849    83A      0.522837  
      84A      0.528483    85A      0.550765    86A      0.571900  
      87A      0.574283    88A      0.585323    89A      0.589230  
      90A      0.598567    91A      0.600135    92A      0.613258  
      93A      0.629187    94A      0.641299    95A      0.653795  
      96A      0.659990    97A      0.684929    98A      0.688982  
      99A      0.695817   100A      0.704765   101A      0.716145  
     102A      0.716692   103A      0.732383   104A      0.743533  
     105A      0.757807   106A      0.764561   107A      0.790002  
     108A      0.790376   109A      0.794277   110A      0.795449  
     111A      0.827263   112A      0.832091   113A      0.833140  
     114A      0.849282   115A      0.860831   116A      0.875703  
     117A      0.884473   118A      0.897020   119A      0.920059  
     120A      0.938731   121A      0.947570   122A      0.957855  
     123A      0.961181   124A      0.988489   125A      1.002277  
     126A      1.010164   127A      1.011334   128A      1.015991  
     129A      1.034033   130A      1.035437   131A      1.046741  
     132A      1.062542   133A      1.070055   134A      1.075567  
     135A      1.096376   136A      1.114719   137A      1.128860  
     138A      1.140248   139A      1.155022   140A      1.159101  
     141A      1.160289   142A      1.166426   143A      1.168853  
     144A      1.175957   145A      1.191266   146A      1.198124  
     147A      1.208945   148A      1.221997   149A      1.229442  
     150A      1.234575   151A      1.238474   152A      1.239493  
     153A      1.244996   154A      1.276405   155A      1.276888  
     156A      1.287864   157A      1.288081   158A      1.306491  
     159A      1.314798   160A      1.327807   161A      1.370749  
     162A      1.371245   163A      1.408018   164A      1.409026  
     165A      1.437110   166A      1.442714   167A      1.458922  
     168A      1.469744   169A      1.474917   170A      1.485608  
     171A      1.491231   172A      1.508444   173A      1.525382  
     174A      1.534847   175A      1.543992   176A      1.593321  
     177A      1.594350   178A      1.618336   179A      1.620298  
     180A      1.625487   181A      1.626441   182A      1.647878  
     183A      1.682878   184A      1.687547   185A      1.699128  
     186A      1.723599   187A      1.728479   188A      1.731003  
     189A      1.757384   190A      1.775796   191A      1.776270  
     192A      1.815097   193A      1.865727   194A      1.870767  
     195A      1.885952   196A      1.900972   197A      1.911941  
     198A      1.923944   199A      1.960966   200A      1.968401  
     201A      1.996914   202A      1.997240   203A      2.018130  
     204A      2.026385   205A      2.026603   206A      2.028311  
     207A      2.032951   208A      2.039799   209A      2.044104  
     210A      2.106835   211A      2.116312   212A      2.125194  
     213A      2.142012   214A      2.143438   215A      2.174083  
     216A      2.187957   217A      2.188146   218A      2.209215  
     219A      2.249270   220A      2.258652   221A      2.265924  
     222A      2.293647   223A      2.293788   224A      2.306486  
     225A      2.335777   226A      2.341549   227A      2.359110  
     228A      2.363288   229A      2.366752   230A      2.373373  
     231A      2.389341   232A      2.395747   233A      2.403128  
     234A      2.418755   235A      2.441396   236A      2.442541  
     237A      2.462757   238A      2.485305   239A      2.492437  
     240A      2.517426   241A      2.526204   242A      2.533230  
     243A      2.548469   244A      2.559973   245A      2.584289  
     246A      2.587480   247A      2.621283   248A      2.626399  
     249A      2.633844   250A      2.645077   251A      2.660572  
     252A      2.682460   253A      2.705869   254A      2.714114  
     255A      2.729201   256A      2.730894   257A      2.751279  
     258A      2.763518   259A      2.763980   260A      2.801445  
     261A      2.803287   262A      2.812082   263A      2.832108  
     264A      2.858320   265A      2.866504   266A      2.918993  
     267A      2.935313   268A      2.940998   269A      2.966614  
     270A      2.974778   271A      2.986892   272A      2.987019  
     273A      3.009219   274A      3.031520   275A      3.041217  
     276A      3.048604   277A      3.074768   278A      3.076409  
     279A      3.084088   280A      3.104107   281A      3.109756  
     282A      3.136611   283A      3.142964   284A      3.153424  
     285A      3.169929   286A      3.187446   287A      3.222946  
     288A      3.248042   289A      3.259539   290A      3.268090  
     291A      3.288171   292A      3.292808   293A      3.320267  
     294A      3.362865   295A      3.366981   296A      3.394795  
     297A      3.398188   298A      3.402727   299A      3.431380  
     300A      3.452724   301A      3.464661   302A      3.474405  
     303A      3.501736   304A      3.523927   305A      3.535842  
     306A      3.549192   307A      3.571935   308A      3.598238  
     309A      3.609822   310A      3.618398   311A      3.635947  
     312A      3.661400   313A      3.690813   314A      3.706581  
     315A      3.716717   316A      3.746886   317A      3.752622  
     318A      3.757220   319A      3.805411   320A      3.834600  
     321A      3.843281   322A      3.843934   323A      3.872920  
     324A      3.908273   325A      3.909236   326A      3.917219  
     327A      3.950385   328A      3.962787   329A      3.982125  
     330A      4.040133   331A      4.041377   332A      4.048177  
     333A      4.060936   334A      4.085132   335A      4.099248  
     336A      4.119955   337A      4.134570   338A      4.157024  
     339A      4.173055   340A      4.202786   341A      4.206058  
     342A      4.217784   343A      4.238155   344A      4.244864  
     345A      4.273326   346A      4.292727   347A      4.317316  
     348A      4.331471   349A      4.336500   350A      4.357282  
     351A      4.406231   352A      4.426975   353A      4.439649  
     354A      4.452036   355A      4.459773   356A      4.489322  
     357A      4.497630   358A      4.511971   359A      4.517371  
     360A      4.541106   361A      4.568958   362A      4.593993  
     363A      4.627467   364A      4.652694   365A      4.669545  
     366A      4.691636   367A      4.696563   368A      4.698328  
     369A      4.718491   370A      4.736706   371A      4.749855  
     372A      4.761400   373A      4.787720   374A      4.823638  
     375A      4.823776   376A      4.826405   377A      4.844174  
     378A      4.846334   379A      4.901030   380A      4.942429  
     381A      4.976665   382A      5.000429   383A      5.000751  
     384A      5.021241   385A      5.058933   386A      5.122449  
     387A      5.154861   388A      5.164033   389A      5.182882  
     390A      5.237087   391A      5.244826   392A      5.253105  
     393A      5.277056   394A      5.289642   395A      5.304829  
     396A      5.342037   397A      5.357795   398A      5.374663  
     399A      5.407468   400A      5.488827   401A      5.512727  
     402A      5.555358   403A      5.582463   404A      5.627021  
     405A      5.647049   406A      5.649399   407A      5.669299  
     408A      5.782291   409A      5.821895   410A      5.828757  
     411A      5.837571   412A      5.897868   413A      5.973163  
     414A      6.030794   415A      6.102403   416A      6.137713  
     417A      6.192979   418A      6.214336   419A      6.227694  
     420A      6.236598   421A      6.292642   422A      6.335288  
     423A      6.338275   424A      6.345820   425A      6.366689  
     426A      6.398097   427A      6.417433   428A      6.458960  
     429A      6.490667   430A      6.495710   431A      6.511439  
     432A      6.520325   433A      6.530884   434A      6.577076  
     435A      6.586295   436A      6.611992   437A      6.638575  
     438A      6.643740   439A      6.656465   440A      6.679918  
     441A      6.699912   442A      6.700489   443A      6.717246  
     444A      6.748371   445A      6.765630   446A      6.782174  
     447A      6.814407   448A      6.820048   449A      6.855384  
     450A      6.885315   451A      6.912954   452A      6.914830  
     453A      6.921513   454A      6.925543   455A      6.937881  
     456A      6.976645   457A      6.988677   458A      7.010653  
     459A      7.039413   460A      7.092548   461A      7.101288  
     462A      7.104605   463A      7.134303   464A      7.152741  
     465A      7.179079   466A      7.194151   467A      7.195713  
     468A      7.218871   469A      7.222268   470A      7.248956  
     471A      7.276504   472A      7.304253   473A      7.352775  
     474A      7.359619   475A      7.366607   476A      7.418184  
     477A      7.429931   478A      7.436915   479A      7.469075  
     480A      7.528668   481A      7.541159   482A      7.583994  
     483A      7.600077   484A      7.604327   485A      7.635719  
     486A      7.707304   487A      7.730596   488A      7.741567  
     489A      7.751187   490A      7.782765   491A      7.802414  
     492A      7.833028   493A      7.841042   494A      7.843105  
     495A      7.917559   496A      7.936596   497A      7.942987  
     498A      7.986502   499A      7.996045   500A      8.014149  
     501A      8.015153   502A      8.042376   503A      8.084276  
     504A      8.105287   505A      8.145943   506A      8.155005  
     507A      8.190898   508A      8.192974   509A      8.322304  
     510A      8.326355   511A      8.335001   512A      8.351689  
     513A      8.378251   514A      8.408337   515A      8.412805  
     516A      8.478097   517A      8.495940   518A      8.497427  
     519A      8.531861   520A      8.551939   521A      8.557682  
     522A      8.586278   523A      8.609626   524A      8.611315  
     525A      8.649277   526A      8.686694   527A      8.706865  
     528A      8.715913   529A      8.762411   530A      8.813866  
     531A      8.825573   532A      8.837706   533A      8.840947  
     534A      8.841136   535A      8.879631   536A      8.899995  
     537A      8.903777   538A      8.936506   539A      8.957182  
     540A      8.993310   541A      9.015786   542A      9.027370  
     543A      9.033719   544A      9.048234   545A      9.055613  
     546A      9.085238   547A      9.109361   548A      9.117106  
     549A      9.171452   550A      9.176563   551A      9.189448  
     552A      9.233911   553A      9.248534   554A      9.314888  
     555A      9.343228   556A      9.350502   557A      9.351899  
     558A      9.366154   559A      9.400734   560A      9.453110  
     561A      9.497488   562A      9.513019   563A      9.525770  
     564A      9.556904   565A      9.648702   566A      9.658492  
     567A      9.727132   568A      9.755274   569A      9.768771  
     570A      9.790373   571A      9.834364   572A      9.899346  
     573A      9.919504   574A      9.930680   575A      9.959323  
     576A     10.067567   577A     10.116808   578A     10.232985  
     579A     10.241938   580A     10.255570   581A     10.294011  
     582A     10.416804   583A     10.477693   584A     10.506580  
     585A     10.508476   586A     10.593086   587A     10.627854  
     588A     10.642908   589A     10.780041   590A     10.793872  
     591A     10.823135   592A     10.826112   593A     10.971443  
     594A     11.001110   595A     11.063725   596A     11.071638  
     597A     11.101648   598A     11.105656   599A     11.130779  
     600A     11.152823   601A     11.162321   602A     11.209838  
     603A     11.225598   604A     11.251687   605A     11.334280  
     606A     11.383561   607A     11.451371   608A     11.455143  
     609A     11.494461   610A     11.498518   611A     11.508265  
     612A     11.542475   613A     11.619465   614A     11.644885  
     615A     11.722006   616A     11.813761   617A     11.820020  
     618A     11.847588   619A     11.885711   620A     11.908033  
     621A     12.198714   622A     12.253637   623A     12.316581  
     624A     12.378547   625A     12.640979   626A     12.651246  
     627A     12.825187   628A     12.870074   629A     12.964583  
     630A     13.028302   631A     13.075802   632A     13.076108  
     633A     13.182892   634A     13.239288   635A     13.255071  
     636A     13.354216   637A     13.357633   638A     13.386153  
     639A     13.421505   640A     13.512461   641A     13.523413  
     642A     13.532853   643A     13.717823   644A     13.736966  
     645A     13.789292   646A     13.813523   647A     13.846871  
     648A     13.908479   649A     13.968973   650A     13.979469  
     651A     14.123405   652A     14.155162   653A     14.690425  
     654A     14.884065   655A     27.255548   656A     27.849333  
     657A     28.043848   658A     28.610621   659A     44.797046  
     660A     45.696069  

    Final Occupation by Irrep:
              A 
    DOCC [    23 ]

  @DF-RHF Final Energy:  -304.75392907654731

   => Energetics <=

    Nuclear Repulsion Energy =            257.0097815294378734
    One-Electron Energy =                -925.6286928915603767
    Two-Electron Energy =                 363.8649822855751950
    Total Energy =                       -304.7539290765473083

Computation Completed


Properties will be evaluated at   0.000000,   0.000000,   0.000000 [a0]

Properties computed using the SCF density matrix

  Nuclear Dipole Moment: [e a0]
     X:    -4.4920      Y:    -0.0003      Z:     0.0011

  Electronic Dipole Moment: [e a0]
     X:     3.7203      Y:     0.0003      Z:    -0.0014

  Dipole Moment: [e a0]
     X:    -0.7718      Y:    -0.0001      Z:    -0.0003     Total:     0.7718

  Dipole Moment: [D]
     X:    -1.9617      Y:    -0.0002      Z:    -0.0008     Total:     1.9617


*** tstop() called on n040 at Mon Jun  8 13:42:43 2020
Module time:
	user time   =     254.51 seconds =       4.24 minutes
	system time =       7.96 seconds =       0.13 minutes
	total time  =         67 seconds =       1.12 minutes
Total time:
	user time   =     254.51 seconds =       4.24 minutes
	system time =       7.96 seconds =       0.13 minutes
	total time  =         67 seconds =       1.12 minutes

*** tstart() called on n040
*** at Mon Jun  8 13:42:43 2020


  //>>>>>>>>>>>>>>>>>>>>>>>>>>>>>>>>>>>//
  //               DFMP2               //
  //<<<<<<<<<<<<<<<<<<<<<<<<<<<<<<<<<<<//

   => Loading Basis Set <=

    Name: (HEAVY-AUG-CC-PV(Q+D)Z AUX)
    Role: RIFIT
    Keyword: DF_BASIS_MP2
    atoms 1, 4, 7, 10     entry C          line   180 file /opt/psi/4/master/share/psi4/basis/heavy-aug-cc-pvqz-ri.gbs 
    atoms 2-3, 5-6, 8, 11 entry H          line    44 file /opt/psi/4/master/share/psi4/basis/heavy-aug-cc-pvqz-ri.gbs 
    atoms 9, 12           entry O          line   328 file /opt/psi/4/master/share/psi4/basis/heavy-aug-cc-pvqz-ri.gbs 

	 --------------------------------------------------------
	                          DF-MP2                         
	      2nd-Order Density-Fitted Moller-Plesset Theory     
	              RMP2 Wavefunction,   4 Threads             
	                                                         
	        Rob Parrish, Justin Turney, Andy Simmonett,      
	           Ed Hohenstein, and C. David Sherrill          
	 --------------------------------------------------------

   => Auxiliary Basis Set <=

  Basis Set: (HEAVY-AUG-CC-PV(Q+D)Z AUX)
    Blend: HEAVY-AUG-CC-PVQZ-RI
    Number of shells: 306
    Number of basis function: 1338
    Number of Cartesian functions: 1842
    Spherical Harmonics?: true
    Max angular momentum: 5

	 --------------------------------------------------------
	                 NBF =   660, NAUX =  1338
	 --------------------------------------------------------
	   CLASS    FOCC     OCC    AOCC    AVIR     VIR    FVIR
	   PAIRS       6      23      17     637     637       0
	 --------------------------------------------------------

	-----------------------------------------------------------
	 ==================> DF-MP2 Energies <==================== 
	-----------------------------------------------------------
	 Reference Energy          =    -304.7539290765473083 [Eh]
	 Singles Energy            =      -0.0000000000000000 [Eh]
	 Same-Spin Energy          =      -0.2941249336319373 [Eh]
	 Opposite-Spin Energy      =      -0.9238398470441382 [Eh]
	 Correlation Energy        =      -1.2179647806760756 [Eh]
	 Total Energy              =    -305.9718938572233924 [Eh]
	-----------------------------------------------------------
	 ================> DF-SCS-MP2 Energies <================== 
	-----------------------------------------------------------
	 SCS Same-Spin Scale       =       0.3333333333333333 [-]
	 SCS Opposite-Spin Scale   =       1.2000000000000000 [-]
	 SCS Same-Spin Energy      =      -0.0980416445439791 [Eh]
	 SCS Opposite-Spin Energy  =      -1.1086078164529658 [Eh]
	 SCS Correlation Energy    =      -1.2066494609969449 [Eh]
	 SCS Total Energy          =    -305.9605785375442792 [Eh]
	-----------------------------------------------------------


*** tstop() called on n040 at Mon Jun  8 13:42:55 2020
Module time:
	user time   =      46.19 seconds =       0.77 minutes
	system time =       0.37 seconds =       0.01 minutes
	total time  =         12 seconds =       0.20 minutes
Total time:
	user time   =     300.71 seconds =       5.01 minutes
	system time =       8.33 seconds =       0.14 minutes
	total time  =         79 seconds =       1.32 minutes

========================OPTAVC-XTPL==========================

MP2/QZ correlation energy -1.2179647806760756
SCF/QZ reference energy -304.7539290765473


=============================================================

Scratch directory: /tmp/

Scratch directory: /tmp/
    SCF Algorithm Type (re)set to DF.

*** tstart() called on n040
*** at Mon Jun  8 13:42:55 2020


  //>>>>>>>>>>>>>>>>>>>>>>>>>>>>>>>>>>>//
  //      Guess SCF, pcseg-0 Basis     //
  //<<<<<<<<<<<<<<<<<<<<<<<<<<<<<<<<<<<//

   => Loading Basis Set <=

    Name: PCSEG-0
    Role: ORBITAL
    Keyword: BASIS
    atoms 1, 4, 7, 10     entry C          line    71 file /opt/psi/4/master/share/psi4/basis/pcseg-0.gbs 
    atoms 2-3, 5-6, 8, 11 entry H          line    13 file /opt/psi/4/master/share/psi4/basis/pcseg-0.gbs 
    atoms 9, 12           entry O          line   103 file /opt/psi/4/master/share/psi4/basis/pcseg-0.gbs 


         ---------------------------------------------------------
                           SCF Castup computation                  
         ---------------------------------------------------------
                                   SCF
               by Justin Turney, Rob Parrish, Andy Simmonett
                          and Daniel G. A. Smith
                              RHF Reference
                        4 Threads,    500 MiB Core
         ---------------------------------------------------------

  ==> Geometry <==

    Molecular point group: c1
    Full point group: C1

    Geometry (in Angstrom), charge = 0, multiplicity = 1:

       Center              X                  Y                   Z               Mass       
    ------------   -----------------  -----------------  -----------------  -----------------
         C           -1.174199517890    -0.774961658783    -0.000122119707    12.000000000000
         H           -1.619191780690    -1.211086467183    -0.891051837007     1.007825032230
         H           -1.619266333190    -1.211279077683     0.890674642893     1.007825032230
         C           -1.174315833390     0.774780790217    -0.000502810893    12.000000000000
         H           -1.619236335893     1.210791887975     0.891593300669     1.007825032230
         H           -1.619595655488     1.211078183761    -0.890127130456     1.007825032230
         C            0.352869786105     0.922222839497     0.000294514435    12.000000000000
         H            0.838734033633     1.892355542123     0.000347160921     1.007825032230
         O            0.767194319316     0.000214803412    -1.027276928744    15.994914619570
         C            0.353009312569    -0.922168538428     0.000020079816    12.000000000000
         H            0.839025812168    -1.892224238051    -0.000224847205     1.007825032230
         O            0.767588600979    -0.000096901647     1.027433432736    15.994914619570

  Running in c1 symmetry.

  Rotational constants: A =      0.19853  B =      0.16229  C =      0.14676 [cm^-1]
  Rotational constants: A =   5951.63402  B =   4865.31295  C =   4399.89564 [MHz]
  Nuclear repulsion =  257.009781529437873

  Charge       = 0
  Multiplicity = 1
  Electrons    = 46
  Nalpha       = 23
  Nbeta        = 23

  ==> Algorithm <==

  SCF Algorithm Type is DF.
  DIIS enabled.
  MOM disabled.
  Fractional occupation disabled.
  Guess Type is SAD.
  Energy threshold   = 1.00e-10
  Density threshold  = 1.00e-10
  Integral threshold = 0.00e+00

  ==> Primary Basis <==

  Basis Set: PCSEG-0
    Blend: PCSEG-0
    Number of shells: 42
    Number of basis function: 66
    Number of Cartesian functions: 66
    Spherical Harmonics?: true
    Max angular momentum: 1

   => Loading Basis Set <=

    Name: (PCSEG-0 AUX)
    Role: JKFIT
    Keyword: DF_BASIS_SCF
    atoms 1, 4, 7, 10     entry C          line   198 file /opt/psi/4/master/share/psi4/basis/def2-universal-jkfit.gbs 
    atoms 2-3, 5-6, 8, 11 entry H          line    18 file /opt/psi/4/master/share/psi4/basis/def2-universal-jkfit.gbs 
    atoms 9, 12           entry O          line   318 file /opt/psi/4/master/share/psi4/basis/def2-universal-jkfit.gbs 

  ==> Integral Setup <==

  ==> DiskDFJK: Density-Fitted J/K Matrices <==

    J tasked:                  Yes
    K tasked:                  Yes
    wK tasked:                  No
    OpenMP threads:              4
    Integrals threads:           4
    Memory [MiB]:              375
    Algorithm:                Core
    Integral Cache:           NONE
    Schwarz Cutoff:          1E-12
    Fitting Condition:       1E-10

   => Auxiliary Basis Set <=

  Basis Set: (PCSEG-0 AUX)
    Blend: DEF2-UNIVERSAL-JKFIT
    Number of shells: 186
    Number of basis function: 562
    Number of Cartesian functions: 662
    Spherical Harmonics?: true
    Max angular momentum: 4

  Minimum eigenvalue in the overlap matrix is 1.2857615994E-03.
  Reciprocal condition number of the overlap matrix is 2.1236683211E-04.
    Using symmetric orthogonalization.

  ==> Pre-Iterations <==

  SCF Guess: Superposition of Atomic Densities via on-the-fly atomic UHF (no occupation information).

   -------------------------
    Irrep   Nso     Nmo    
   -------------------------
     A         66      66 
   -------------------------
    Total      66      66
   -------------------------

  ==> Iterations <==

                           Total Energy        Delta E     RMS |[F,P]|

   @DF-RHF iter SAD:  -303.69612647430608   -3.03696e+02   0.00000e+00 
   @DF-RHF iter   1:  -303.56575512464633    1.30371e-01   7.23981e-03 DIIS
   @DF-RHF iter   2:  -303.66478936822762   -9.90342e-02   3.96857e-03 DIIS
   @DF-RHF iter   3:  -303.69039938130589   -2.56100e-02   6.19744e-04 DIIS
   @DF-RHF iter   4:  -303.69158423763184   -1.18486e-03   1.96389e-04 DIIS
   @DF-RHF iter   5:  -303.69167994301137   -9.57054e-05   4.10598e-05 DIIS
   @DF-RHF iter   6:  -303.69168753468301   -7.59167e-06   8.37964e-06 DIIS
   @DF-RHF iter   7:  -303.69168793760457   -4.02922e-07   1.68820e-06 DIIS
   @DF-RHF iter   8:  -303.69168795171674   -1.41122e-08   5.42212e-07 DIIS
   @DF-RHF iter   9:  -303.69168795313584   -1.41910e-09   1.09377e-07 DIIS
   @DF-RHF iter  10:  -303.69168795321247   -7.66249e-11   1.91293e-08 DIIS
   @DF-RHF iter  11:  -303.69168795321400   -1.53477e-12   5.97520e-09 DIIS
   @DF-RHF iter  12:  -303.69168795321411   -1.13687e-13   2.37772e-09 DIIS
   @DF-RHF iter  13:  -303.69168795321428   -1.70530e-13   2.16758e-10 DIIS
   @DF-RHF iter  14:  -303.69168795321423    5.68434e-14   7.08330e-11 DIIS
  Energy and wave function converged.


  ==> Post-Iterations <==

    Orbital Energies [Eh]
    ---------------------

    Doubly Occupied:                                                      

       1A    -20.584551     2A    -20.584450     3A    -11.369617  
       4A    -11.369613     5A    -11.256150     6A    -11.255753  
       7A     -1.537595     8A     -1.312995     9A     -1.091787  
      10A     -1.008909    11A     -0.821913    12A     -0.790170  
      13A     -0.768290    14A     -0.680698    15A     -0.662953  
      16A     -0.658514    17A     -0.552299    18A     -0.534500  
      19A     -0.527389    20A     -0.524503    21A     -0.519487  
      22A     -0.467037    23A     -0.443241  

    Virtual:                                                              

      24A      0.203076    25A      0.231193    26A      0.236103  
      27A      0.242166    28A      0.253176    29A      0.267378  
      30A      0.314391    31A      0.350237    32A      0.350954  
      33A      0.382135    34A      0.406827    35A      0.464628  
      36A      0.570266    37A      0.796411    38A      0.807887  
      39A      0.820766    40A      0.925688    41A      0.932812  
      42A      0.946977    43A      0.949994    44A      1.003365  
      45A      1.005052    46A      1.030115    47A      1.060608  
      48A      1.072102    49A      1.134172    50A      1.148937  
      51A      1.170424    52A      1.173946    53A      1.210913  
      54A      1.237899    55A      1.424565    56A      1.454750  
      57A      1.482487    58A      1.522008    59A      1.691064  
      60A      1.705476    61A      1.927931    62A      1.950917  
      63A      2.140069    64A      2.299075    65A      2.374981  
      66A      2.441140  

    Final Occupation by Irrep:
              A 
    DOCC [    23 ]

  @DF-RHF Final Energy:  -303.69168795321423

   => Energetics <=

    Nuclear Repulsion Energy =            257.0097815294378734
    One-Electron Energy =                -922.7581084262515105
    Two-Electron Energy =                 362.0566389435994097
    Total Energy =                       -303.6916879532142275

Computation Completed

  //>>>>>>>>>>>>>>>>>>>>>>>>>>>>>>>>>>>//
  //                SCF                //
  //<<<<<<<<<<<<<<<<<<<<<<<<<<<<<<<<<<<//

   => Loading Basis Set <=

    Name: HEAVY-AUG-CC-PV(T+D)Z
    Role: ORBITAL
    Keyword: BASIS
    atoms 1, 4, 7, 10     entry C          line   273 file /opt/psi/4/master/share/psi4/basis/heavy-aug-cc-pv_tpd_z.gbs 
    atoms 2-3, 5-6, 8, 11 entry H          line    86 file /opt/psi/4/master/share/psi4/basis/heavy-aug-cc-pv_tpd_z.gbs 
    atoms 9, 12           entry O          line   365 file /opt/psi/4/master/share/psi4/basis/heavy-aug-cc-pv_tpd_z.gbs 


         ---------------------------------------------------------
                                   SCF
               by Justin Turney, Rob Parrish, Andy Simmonett
                          and Daniel G. A. Smith
                              RHF Reference
                        4 Threads,    500 MiB Core
         ---------------------------------------------------------

  ==> Geometry <==

    Molecular point group: c1
    Full point group: C1

    Geometry (in Angstrom), charge = 0, multiplicity = 1:

       Center              X                  Y                   Z               Mass       
    ------------   -----------------  -----------------  -----------------  -----------------
         C           -1.174199517890    -0.774961658783    -0.000122119707    12.000000000000
         H           -1.619191780690    -1.211086467183    -0.891051837007     1.007825032230
         H           -1.619266333190    -1.211279077683     0.890674642893     1.007825032230
         C           -1.174315833390     0.774780790217    -0.000502810893    12.000000000000
         H           -1.619236335893     1.210791887975     0.891593300669     1.007825032230
         H           -1.619595655488     1.211078183761    -0.890127130456     1.007825032230
         C            0.352869786105     0.922222839497     0.000294514435    12.000000000000
         H            0.838734033633     1.892355542123     0.000347160921     1.007825032230
         O            0.767194319316     0.000214803412    -1.027276928744    15.994914619570
         C            0.353009312569    -0.922168538428     0.000020079816    12.000000000000
         H            0.839025812168    -1.892224238051    -0.000224847205     1.007825032230
         O            0.767588600979    -0.000096901647     1.027433432736    15.994914619570

  Running in c1 symmetry.

  Rotational constants: A =      0.19853  B =      0.16229  C =      0.14676 [cm^-1]
  Rotational constants: A =   5951.63402  B =   4865.31295  C =   4399.89564 [MHz]
  Nuclear repulsion =  257.009781529437873

  Charge       = 0
  Multiplicity = 1
  Electrons    = 46
  Nalpha       = 23
  Nbeta        = 23

  ==> Algorithm <==

  SCF Algorithm Type is DF.
  DIIS enabled.
  MOM disabled.
  Fractional occupation disabled.
  Guess Type is SAD.
  Energy threshold   = 1.00e-10
  Density threshold  = 1.00e-10
  Integral threshold = 0.00e+00

  ==> Primary Basis <==

  Basis Set: HEAVY-AUG-CC-PV(T+D)Z
    Blend: HEAVY-AUG-CC-PV(T+D)Z
    Number of shells: 120
    Number of basis function: 360
    Number of Cartesian functions: 420
    Spherical Harmonics?: true
    Max angular momentum: 3

   => Loading Basis Set <=

    Name: (HEAVY-AUG-CC-PV(T+D)Z AUX)
    Role: JKFIT
    Keyword: DF_BASIS_SCF
    atoms 1, 4, 7, 10     entry C          line   200 file /opt/psi/4/master/share/psi4/basis/heavy-aug-cc-pvtz-jkfit.gbs 
    atoms 2-3, 5-6, 8, 11 entry H          line   116 file /opt/psi/4/master/share/psi4/basis/heavy-aug-cc-pvtz-jkfit.gbs 
    atoms 9, 12           entry O          line   324 file /opt/psi/4/master/share/psi4/basis/heavy-aug-cc-pvtz-jkfit.gbs 


  Computing basis projection from PCSEG-0 to HEAVY-AUG-CC-PV(T+D)Z

  ==> Integral Setup <==

  ==> DiskDFJK: Density-Fitted J/K Matrices <==

    J tasked:                  Yes
    K tasked:                  Yes
    wK tasked:                  No
    OpenMP threads:              4
    Integrals threads:           4
    Memory [MiB]:              375
    Algorithm:                Disk
    Integral Cache:           NONE
    Schwarz Cutoff:          1E-12
    Fitting Condition:       1E-10

   => Auxiliary Basis Set <=

  Basis Set: (HEAVY-AUG-CC-PV(T+D)Z AUX)
    Blend: HEAVY-AUG-CC-PVTZ-JKFIT
    Number of shells: 240
    Number of basis function: 804
    Number of Cartesian functions: 996
    Spherical Harmonics?: true
    Max angular momentum: 4

  Minimum eigenvalue in the overlap matrix is 5.5232939682E-06.
  Reciprocal condition number of the overlap matrix is 4.0379223843E-07.
    Using symmetric orthogonalization.

  ==> Pre-Iterations <==

  SCF Guess: Orbitals guess was supplied from a previous computation.

   -------------------------
    Irrep   Nso     Nmo    
   -------------------------
     A        360     360 
   -------------------------
    Total     360     360
   -------------------------

  ==> Iterations <==

                           Total Energy        Delta E     RMS |[F,P]|

   @DF-RHF iter   0:  -304.36279445036854   -3.04363e+02   4.15915e-03 
   @DF-RHF iter   1:  -304.71637246408369   -3.53578e-01   5.72536e-04 DIIS
   @DF-RHF iter   2:  -304.73153526301815   -1.51628e-02   2.71836e-04 DIIS
   @DF-RHF iter   3:  -304.73522874996144   -3.69349e-03   4.87334e-05 DIIS
   @DF-RHF iter   4:  -304.73549266877711   -2.63919e-04   1.57941e-05 DIIS
   @DF-RHF iter   5:  -304.73551372337209   -2.10546e-05   6.25271e-06 DIIS
   @DF-RHF iter   6:  -304.73551762156819   -3.89820e-06   1.42026e-06 DIIS
   @DF-RHF iter   7:  -304.73551788709636   -2.65528e-07   3.12715e-07 DIIS
   @DF-RHF iter   8:  -304.73551790132245   -1.42261e-08   7.98347e-08 DIIS
   @DF-RHF iter   9:  -304.73551790225702   -9.34563e-10   2.59605e-08 DIIS
   @DF-RHF iter  10:  -304.73551790234308   -8.60609e-11   6.49292e-09 DIIS
   @DF-RHF iter  11:  -304.73551790234967   -6.59384e-12   1.73743e-09 DIIS
   @DF-RHF iter  12:  -304.73551790235081   -1.13687e-12   6.22984e-10 DIIS
   @DF-RHF iter  13:  -304.73551790235047    3.41061e-13   2.83102e-10 DIIS
   @DF-RHF iter  14:  -304.73551790235052   -5.68434e-14   4.76204e-11 DIIS
  Energy and wave function converged.


  ==> Post-Iterations <==

    Orbital Energies [Eh]
    ---------------------

    Doubly Occupied:                                                      

       1A    -20.568158     2A    -20.568072     3A    -11.349649  
       4A    -11.349624     5A    -11.237699     6A    -11.237133  
       7A     -1.491675     8A     -1.293038     9A     -1.067662  
      10A     -0.988204    11A     -0.810390    12A     -0.789670  
      13A     -0.746569    14A     -0.672377    15A     -0.651351  
      16A     -0.646394    17A     -0.534223    18A     -0.524424  
      19A     -0.519401    20A     -0.512077    21A     -0.509900  
      22A     -0.459472    23A     -0.433486  

    Virtual:                                                              

      24A      0.050341    25A      0.050958    26A      0.059703  
      27A      0.072058    28A      0.073418    29A      0.092446  
      30A      0.093544    31A      0.096704    32A      0.116617  
      33A      0.126306    34A      0.127402    35A      0.130072  
      36A      0.162104    37A      0.176070    38A      0.195279  
      39A      0.204144    40A      0.206506    41A      0.214123  
      42A      0.220417    43A      0.228362    44A      0.233848  
      45A      0.249384    46A      0.268467    47A      0.268604  
      48A      0.277121    49A      0.295367    50A      0.300765  
      51A      0.312907    52A      0.331208    53A      0.335327  
      54A      0.341775    55A      0.347771    56A      0.356281  
      57A      0.356970    58A      0.362598    59A      0.374771  
      60A      0.397681    61A      0.404428    62A      0.412741  
      63A      0.421294    64A      0.432409    65A      0.446451  
      66A      0.457847    67A      0.465030    68A      0.485336  
      69A      0.492973    70A      0.503861    71A      0.510863  
      72A      0.516692    73A      0.519784    74A      0.527003  
      75A      0.528724    76A      0.543688    77A      0.545929  
      78A      0.580849    79A      0.591995    80A      0.608233  
      81A      0.613185    82A      0.620785    83A      0.653730  
      84A      0.658699    85A      0.673172    86A      0.722029  
      87A      0.735832    88A      0.747611    89A      0.753872  
      90A      0.770320    91A      0.780936    92A      0.791197  
      93A      0.797151    94A      0.815664    95A      0.818605  
      96A      0.828072    97A      0.844014    98A      0.877697  
      99A      0.891339   100A      0.926899   101A      0.928740  
     102A      0.938713   103A      0.946019   104A      0.970404  
     105A      0.985543   106A      0.998647   107A      1.032143  
     108A      1.037105   109A      1.038582   110A      1.060336  
     111A      1.082290   112A      1.096481   113A      1.114110  
     114A      1.120816   115A      1.138263   116A      1.160758  
     117A      1.185509   118A      1.222832   119A      1.247407  
     120A      1.251751   121A      1.261101   122A      1.283304  
     123A      1.321663   124A      1.329830   125A      1.335755  
     126A      1.352874   127A      1.373530   128A      1.383828  
     129A      1.398635   130A      1.403610   131A      1.415112  
     132A      1.446488   133A      1.447613   134A      1.458027  
     135A      1.483403   136A      1.499043   137A      1.505816  
     138A      1.528547   139A      1.546522   140A      1.560330  
     141A      1.581642   142A      1.586281   143A      1.586928  
     144A      1.589126   145A      1.599935   146A      1.654260  
     147A      1.656693   148A      1.670278   149A      1.677175  
     150A      1.684038   151A      1.698588   152A      1.707843  
     153A      1.715659   154A      1.731700   155A      1.735533  
     156A      1.750312   157A      1.752185   158A      1.791857  
     159A      1.799802   160A      1.807053   161A      1.822845  
     162A      1.901585   163A      1.902160   164A      1.930511  
     165A      1.939450   166A      1.949877   167A      1.984770  
     168A      1.990650   169A      2.003175   170A      2.007783  
     171A      2.026895   172A      2.046479   173A      2.055187  
     174A      2.058854   175A      2.150494   176A      2.151532  
     177A      2.209174   178A      2.252343   179A      2.300686  
     180A      2.333540   181A      2.392392   182A      2.401350  
     183A      2.419769   184A      2.443672   185A      2.451013  
     186A      2.472177   187A      2.504264   188A      2.508403  
     189A      2.540764   190A      2.579665   191A      2.628591  
     192A      2.646217   193A      2.682275   194A      2.685917  
     195A      2.723842   196A      2.769206   197A      2.787635  
     198A      2.875385   199A      2.875689   200A      2.891081  
     201A      2.914487   202A      2.921435   203A      2.954066  
     204A      2.959142   205A      2.963874   206A      3.076755  
     207A      3.098061   208A      3.119348   209A      3.127724  
     210A      3.181165   211A      3.186699   212A      3.205006  
     213A      3.215723   214A      3.240456   215A      3.261441  
     216A      3.306516   217A      3.332703   218A      3.408566  
     219A      3.412122   220A      3.414659   221A      3.434607  
     222A      3.441137   223A      3.471956   224A      3.484390  
     225A      3.500899   226A      3.524529   227A      3.538622  
     228A      3.602460   229A      3.626517   230A      3.630584  
     231A      3.667075   232A      3.683010   233A      3.695597  
     234A      3.706266   235A      3.728401   236A      3.730168  
     237A      3.749294   238A      3.816141   239A      3.832786  
     240A      3.843048   241A      3.866067   242A      3.873778  
     243A      3.926743   244A      3.952174   245A      3.959910  
     246A      3.961371   247A      3.964579   248A      4.004071  
     249A      4.018677   250A      4.048931   251A      4.053572  
     252A      4.073825   253A      4.105469   254A      4.111822  
     255A      4.144939   256A      4.163329   257A      4.169869  
     258A      4.180246   259A      4.185743   260A      4.211836  
     261A      4.235151   262A      4.244918   263A      4.258317  
     264A      4.263849   265A      4.267823   266A      4.315979  
     267A      4.343527   268A      4.365746   269A      4.424685  
     270A      4.471253   271A      4.479328   272A      4.482040  
     273A      4.495672   274A      4.511536   275A      4.526566  
     276A      4.552180   277A      4.583278   278A      4.637997  
     279A      4.688297   280A      4.689106   281A      4.702016  
     282A      4.706287   283A      4.730862   284A      4.743588  
     285A      4.755735   286A      4.805871   287A      4.820311  
     288A      4.821069   289A      4.837991   290A      4.885717  
     291A      4.907329   292A      4.957750   293A      4.963620  
     294A      4.964544   295A      5.096442   296A      5.117661  
     297A      5.125174   298A      5.190413   299A      5.193881  
     300A      5.238810   301A      5.265867   302A      5.282106  
     303A      5.394475   304A      5.417542   305A      5.435271  
     306A      5.464982   307A      5.472229   308A      5.580991  
     309A      5.581919   310A      5.596033   311A      5.653142  
     312A      5.704818   313A      5.712884   314A      5.717438  
     315A      5.861755   316A      5.868575   317A      5.897646  
     318A      5.925955   319A      6.060402   320A      6.122905  
     321A      6.140925   322A      6.205418   323A      6.240900  
     324A      6.281312   325A      6.284406   326A      6.347893  
     327A      6.383729   328A      6.493112   329A      6.559799  
     330A      6.901427   331A      6.901569   332A      6.939437  
     333A      6.962647   334A      6.996090   335A      7.024362  
     336A      7.104647   337A      7.128441   338A      7.172233  
     339A      7.189285   340A      7.226243   341A      7.238151  
     342A      7.389197   343A      7.488124   344A      7.587916  
     345A      7.608701   346A      7.634437   347A      7.736848  
     348A      7.793237   349A      7.820837   350A      7.910758  
     351A      8.038117   352A      8.194572   353A      8.219589  
     354A      8.226942   355A     14.245098   356A     15.440267  
     357A     15.554041   358A     15.867175   359A     17.393308  
     360A     18.710541  

    Final Occupation by Irrep:
              A 
    DOCC [    23 ]

  @DF-RHF Final Energy:  -304.73551790235052

   => Energetics <=

    Nuclear Repulsion Energy =            257.0097815294378734
    One-Electron Energy =                -925.5693059746488416
    Two-Electron Energy =                 363.8240065428604453
    Total Energy =                       -304.7355179023505229

Computation Completed


Properties will be evaluated at   0.000000,   0.000000,   0.000000 [a0]

Properties computed using the SCF density matrix

  Nuclear Dipole Moment: [e a0]
     X:    -4.4920      Y:    -0.0003      Z:     0.0011

  Electronic Dipole Moment: [e a0]
     X:     3.7198      Y:     0.0003      Z:    -0.0014

  Dipole Moment: [e a0]
     X:    -0.7722      Y:    -0.0001      Z:    -0.0003     Total:     0.7722

  Dipole Moment: [D]
     X:    -1.9628      Y:    -0.0002      Z:    -0.0008     Total:     1.9628


*** tstop() called on n040 at Mon Jun  8 13:43:11 2020
Module time:
	user time   =      56.57 seconds =       0.94 minutes
	system time =       1.85 seconds =       0.03 minutes
	total time  =         16 seconds =       0.27 minutes
Total time:
	user time   =     357.76 seconds =       5.96 minutes
	system time =      10.36 seconds =       0.17 minutes
	total time  =         95 seconds =       1.58 minutes

*** tstart() called on n040
*** at Mon Jun  8 13:43:11 2020


  //>>>>>>>>>>>>>>>>>>>>>>>>>>>>>>>>>>>//
  //               DFMP2               //
  //<<<<<<<<<<<<<<<<<<<<<<<<<<<<<<<<<<<//

   => Loading Basis Set <=

    Name: (HEAVY-AUG-CC-PV(T+D)Z AUX)
    Role: RIFIT
    Keyword: DF_BASIS_MP2
    atoms 1, 4, 7, 10     entry C          line   148 file /opt/psi/4/master/share/psi4/basis/heavy-aug-cc-pvtz-ri.gbs 
    atoms 2-3, 5-6, 8, 11 entry H          line    44 file /opt/psi/4/master/share/psi4/basis/heavy-aug-cc-pvtz-ri.gbs 
    atoms 9, 12           entry O          line   264 file /opt/psi/4/master/share/psi4/basis/heavy-aug-cc-pvtz-ri.gbs 

	 --------------------------------------------------------
	                          DF-MP2                         
	      2nd-Order Density-Fitted Moller-Plesset Theory     
	              RMP2 Wavefunction,   4 Threads             
	                                                         
	        Rob Parrish, Justin Turney, Andy Simmonett,      
	           Ed Hohenstein, and C. David Sherrill          
	 --------------------------------------------------------

   => Auxiliary Basis Set <=

  Basis Set: (HEAVY-AUG-CC-PV(T+D)Z AUX)
    Blend: HEAVY-AUG-CC-PVTZ-RI
    Number of shells: 228
    Number of basis function: 816
    Number of Cartesian functions: 1026
    Spherical Harmonics?: true
    Max angular momentum: 4

	 --------------------------------------------------------
	                 NBF =   360, NAUX =   816
	 --------------------------------------------------------
	   CLASS    FOCC     OCC    AOCC    AVIR     VIR    FVIR
	   PAIRS       6      23      17     337     337       0
	 --------------------------------------------------------

	-----------------------------------------------------------
	 ==================> DF-MP2 Energies <==================== 
	-----------------------------------------------------------
	 Reference Energy          =    -304.7355179023505229 [Eh]
	 Singles Energy            =      -0.0000000000000000 [Eh]
	 Same-Spin Energy          =      -0.2854800880504785 [Eh]
	 Opposite-Spin Energy      =      -0.8633109275784572 [Eh]
	 Correlation Energy        =      -1.1487910156289356 [Eh]
	 Total Energy              =    -305.8843089179794674 [Eh]
	-----------------------------------------------------------
	 ================> DF-SCS-MP2 Energies <================== 
	-----------------------------------------------------------
	 SCS Same-Spin Scale       =       0.3333333333333333 [-]
	 SCS Opposite-Spin Scale   =       1.2000000000000000 [-]
	 SCS Same-Spin Energy      =      -0.0951600293501595 [Eh]
	 SCS Opposite-Spin Energy  =      -1.0359731130941485 [Eh]
	 SCS Correlation Energy    =      -1.1311331424443081 [Eh]
	 SCS Total Energy          =    -305.8666510447948212 [Eh]
	-----------------------------------------------------------


*** tstop() called on n040 at Mon Jun  8 13:43:14 2020
Module time:
	user time   =      10.26 seconds =       0.17 minutes
	system time =       0.13 seconds =       0.00 minutes
	total time  =          3 seconds =       0.05 minutes
Total time:
	user time   =     368.02 seconds =       6.13 minutes
	system time =      10.49 seconds =       0.17 minutes
	total time  =         98 seconds =       1.63 minutes

========================OPTAVC-XTPL==========================

MP2/TZ correlation energy -1.1487910156289356

=============================================================

    Psi4 stopped on: Monday, 08 June 2020 01:43PM
    Psi4 wall time for execution: 0:01:38.23

*** Psi4 exiting successfully. Buy a developer a beer!
