
 Primary working directories    : /tmp/320938.652.gen6.q
 Secondary working directories  : /tmp/320938.652.gen6.q
 Wavefunction directory         : /home/vulcan/mel64643/wfu/
 Main file repository           : /tmp/320938.652.gen6.q/

 ARCHNAME  : Linux/x86_64
 FC        : /opt/intel/compilers_and_libraries_2016.1.150/linux/bin/intel64/ifort
 FCVERSION : 16.0.1
 BLASLIB   : -mkl
 id        : ccgc

 Nodes     nprocs
 n078         3
 Number of processes for MPI-2 version of Molpro:   nprocs(total)=    4   nprocs(compute)=    3   nprocs(helper)=    1
 ga_uses_ma=false, calling ma_init with nominal heap.
 GA-space will be limited to   8.0 MW (determined by -G option)

 Using customized tuning parameters: mindgm=10; mindgv=16; mindgc=4; mindgr=1; noblas=0; mincuda=1000; minvec=7
 default implementation of scratch files=sf  

 ***,Frequencies for min3
 memory,1000,m
 gthresh,energy=1.0d-10,orbital=1.0d-10,oneint=1.0d-16,twoint=1.0d-16,optgrad=1.0d-6,compress=1.0d-13
 geomtyp=xyz
 
  geometry = {
  12
  arbitrary comment
     C    1.776964391707    0.711398808326   -0.046821519474
     C    0.491772914207   -0.059373935353   -0.196774048439
     C    0.450248329622   -1.536503585482    0.101443760473
     O   -0.560653393903    0.727131257588    0.254227795165
     O   -1.837848920427    0.092184388631   -0.120371509993
     H    2.585274034208    0.210954096411   -0.612199242544
     H    1.660478350497    1.742482098757   -0.427412781012
     H    2.095395664031    0.773901478506    1.016877639024
     H   -0.505054012282   -1.982979800436   -0.219774421363
     H    1.281666572388   -2.047580657927   -0.417196995575
     H    0.561907435947   -1.719166239682    1.194784665885
     H   -1.988191922761    0.550591660767   -0.966898028870
  }
 
 basis=cc-pvdz
 {rhf;maxit,200}
 {uccsd(t);maxit,200}

 Variables initialized (661), CPU time= 0.01 sec
 Commands  initialized (458), CPU time= 0.00 sec, 486 directives.
 Default parameters read. Elapsed time= 0.07 sec

 Checking input...
 Passed
1


                                         ***  PROGRAM SYSTEM MOLPRO  ***
                         Copyright, University College Cardiff Consultants Limited, 2008

                                    Version 2010.1 linked May 16 2016 07:17:05


 **********************************************************************************************************************************
 LABEL *   Frequencies for min3                                                          
 Linux-4.4.3/n078(x86_64) 64 bit mpp version                                             DATE: 07-Mar-20          TIME: 04:47:50  
 **********************************************************************************************************************************

 SHA1:             9e8077add272b0f3cad6f7df79ec5211205f459d
 **********************************************************************************************************************************

 THRESHOLDS:

 ZERO    =  1.00D-12  ONEINT  =  1.00D-16  TWOINT  =  1.00D-16  PREFAC  =  1.00D-14  LOCALI  =  1.00D-09  EORDER  =  1.00D-04
 ENERGY  =  1.00D-10  ETEST   =  0.00D+00  EDENS   =  0.00D+00  THRDEDEF=  1.00D-06  GRADIENT=  1.00D-02  STEP    =  1.00D-03
 ORBITAL =  1.00D-10  CIVEC   =  1.00D-05  COEFF   =  1.00D-04  PRINTCI =  5.00D-02  PUNCHCI =  9.90D+01  OPTGRAD =  1.00D-06
 OPTENERG=  1.00D-06  OPTSTEP =  3.00D-04  THRGRAD =  1.00D-10  COMPRESS=  1.00D-13  VARMIN  =  1.00D-07  VARMAX  =  1.00D-03
 THRDOUB =  0.00D+00  THRDIV  =  1.00D-05  THRRED  =  1.00D-07  THRPSP  =  1.00D+00  THRDC   =  1.00D-10  THRCS   =  1.00D-10
 THRNRM  =  1.00D-08  THREQ   =  0.00D+00  THRDE   =  1.00D+00  THRREF  =  1.00D-05  SPARFAC =  1.00D+00  THRDLP  =  1.00D-07
 THRDIA  =  1.00D-10  THRDLS  =  1.00D-07  THRGPS  =  0.00D+00  THRKEX  =  0.00D+00  THRDIS  =  2.00D-01  THRVAR  =  1.00D-10
 THRLOC  =  1.00D-06  THRGAP  =  1.00D-06  THRLOCT = -1.00D+00  THRGAPT = -1.00D+00  THRORB  =  1.00D-06  THRMLTP =  0.00D+00
 THRCPQCI=  1.00D-10  KEXTA   =  0.00D+00  THRCOARS=  0.00D+00  SYMTOL  =  1.00D-06  GRADTOL =  1.00D-06  THROVL  =  1.00D-08
 THRORTH =  1.00D-08  GRID    =  1.00D-06  GRIDMAX =  1.00D-03  DTMAX   =  0.00D+00

 SETTING GEOMTYP        =    XYZ

 Variable memory set to 1000000000 words,  buffer space   230000 words

 SETTING BASIS          =    CC-PVDZ


 Recomputing integrals since basis changed


 Using spherical harmonics

 Library entry C      S cc-pVDZ              selected for orbital group  1
 Library entry C      P cc-pVDZ              selected for orbital group  1
 Library entry C      D cc-pVDZ              selected for orbital group  1
 Library entry O      S cc-pVDZ              selected for orbital group  2
 Library entry O      P cc-pVDZ              selected for orbital group  2
 Library entry O      D cc-pVDZ              selected for orbital group  2
 Library entry H      S cc-pVDZ              selected for orbital group  3
 Library entry H      P cc-pVDZ              selected for orbital group  3

1PROGRAM * SEWARD (Integral evaluation for generally contracted gaussian basis sets)     Author: Roland Lindh, 1990

 Geometry written to block  1 of record 700


 Point group  C1  



 ATOMIC COORDINATES

 NR  ATOM    CHARGE       X              Y              Z

   1  C       6.00    3.357976046    1.344348918   -0.088479849
   2  C       6.00    0.929316127   -0.112200477   -0.371849061
   3  C       6.00    0.850846034   -2.903570977    0.191700925
   4  O       8.00   -1.059481369    1.374078938    0.480420908
   5  O       8.00   -3.473031131    0.174203248   -0.227469188
   6  H       1.00    4.885459899    0.398645469   -1.156888906
   7  H       1.00    3.137849330    3.292813956   -0.807693101
   8  H       1.00    3.959723942    1.462461847    1.921620247
   9  H       1.00   -0.954413765   -3.747288747   -0.415313467
  10  H       1.00    2.421998814   -3.869366675   -0.788388064
  11  H       1.00    1.061851165   -3.248753367    2.257815805
  12  H       1.00   -3.757138231    1.040467449   -1.827172472

 Bond lengths in Bohr (Angstrom)

 1-2  2.846089115  1-6  2.090229617  1-7  2.088597490  1-8  2.101559799  2-3  2.848770859
     ( 1.506085495)     ( 1.106101875)     ( 1.105238191)     ( 1.112097549)     ( 1.507504612)

  2- 4  2.625015444   3- 9  2.083096035   3-10  2.088505881   3-11  2.105351454   4- 5  2.786760218
       ( 1.389098346)       ( 1.102326946)       ( 1.105189713)       ( 1.114104006)       ( 1.474689994)

  5-12  1.841244445
       ( 0.974344596)

 Bond angles

  1-2-3  120.34925426   1-2-4  108.93056480   2-1-6  109.94722371   2-1-7  110.68399898

  2- 1- 8  111.61280150   2- 3- 9  111.29042915   2- 3-10  109.85011466   2- 3-11  110.61128186

  2- 4- 5  109.26340294   3- 2- 4  118.01439380   4- 5-12   98.72910004   6- 1- 7  108.84988220

  6- 1- 8  107.76312577   7- 1- 8  107.88529892   9- 3-10  109.14141594   9- 3-11  107.84352410

 10- 3-11  108.01808277

 NUCLEAR CHARGE:                   41
 NUMBER OF PRIMITIVE AOS:         184
 NUMBER OF SYMMETRY AOS:          179
 NUMBER OF CONTRACTIONS:          105   ( 105A   )
 NUMBER OF CORE ORBITALS:           5   (   5A   )
 NUMBER OF VALENCE ORBITALS:       27   (  27A   )


 NUCLEAR REPULSION ENERGY  183.22472670


 Eigenvalues of metric

         1 0.345E-02 0.436E-02 0.105E-01 0.141E-01 0.182E-01 0.214E-01 0.331E-01 0.346E-01


 Contracted 2-electron integrals neglected if value below      1.0D-16
 AO integral compression algorithm  1   Integral accuracy      1.0D-16

     127.402 MB (compressed) written to integral file ( 93.4%)

     Node minimum: 29.098 MB, node maximum: 50.070 MB


 NUMBER OF SORTED TWO-ELECTRON INTEGRALS:    5164320.     BUFFER LENGTH:  32768
 NUMBER OF SEGMENTS:   1  SEGMENT LENGTH:    5164320      RECORD LENGTH: 524288

 Memory used in sort:       5.72 MW

 SORT1 READ    17075251. AND WROTE     5135889. INTEGRALS IN     15 RECORDS. CPU TIME:     0.29 SEC, REAL TIME:     0.33 SEC
 SORT2 READ    15396615. AND WROTE    15487395. INTEGRALS IN    333 RECORDS. CPU TIME:     0.10 SEC, REAL TIME:     0.13 SEC

 Node minimum:     5160610.  Node maximum:     5164320. integrals

 OPERATOR DM      FOR CENTER  0  COORDINATES:    0.000000    0.000000    0.000000


 **********************************************************************************************************************************
 DATASETS  * FILE   NREC   LENGTH (MB)   RECORD NAMES
              1      18        3.17       500      610      700      900      950      970     1000      129      960     1100   
                                          VAR    BASINP    GEOM    SYMINP    ZMAT    AOBASIS   BASIS     P2S    ABASIS      S 
                                         1400     1410     1200     1210     1080     1600     1650     1700   
                                           T        V       H0       H01     AOSYM     SMH    MOLCAS    OPER   

 PROGRAMS   *        TOTAL       INT
 CPU TIMES  *         1.04      0.96
 REAL TIME  *         1.43 SEC
 DISK USED  *       317.33 MB      
 GA USED    *         0.00 MB       (max)       0.00 MB       (current)
 **********************************************************************************************************************************

1PROGRAM * RHF-SCF (OPEN SHELL)       Authors: W. Meyer, H.-J. Werner


 NUMBER OF ELECTRONS:      21+   20-    SPACE SYMMETRY=1    SPIN SYMMETRY: Doublet 
 CONVERGENCE THRESHOLDS:    1.00E-10 (Density)    1.00E-11 (Energy)
 MAX. NUMBER OF ITERATIONS:      200
 INTERPOLATION TYPE:            DIIS
 INTERPOLATION STEPS:              2 (START)      1 (STEP)
 LEVEL SHIFTS:                 -0.30 (CLOSED)  0.00 (OPEN) 



 Orbital guess generated from atomic densities. Full valence occupancy:   32

 Molecular orbital dump at record        2100.2

 ITERATION    DDIFF          GRAD             ENERGY        2-EL.EN.            DIPOLE MOMENTS         DIIS
    1      0.000D+00      0.000D+00      -267.17824390    555.820129    0.57004    0.05089   -0.75046    0
    2      0.000D+00      0.617D-02      -267.24893138    555.743437    0.41359   -0.13023   -0.59858    1
    3      0.928D-02      0.214D-02      -267.26111097    555.661064    0.39322   -0.05838   -0.62583    2
    4      0.336D-02      0.912D-03      -267.26472378    555.813432    0.37852   -0.09860   -0.64209    3
    5      0.186D-02      0.364D-03      -267.26529414    555.784766    0.38101   -0.09214   -0.63499    4
    6      0.793D-03      0.110D-03      -267.26537086    555.771020    0.37926   -0.09194   -0.63772    5
    7      0.277D-03      0.512D-04      -267.26539109    555.768003    0.37853   -0.09169   -0.63720    6
    8      0.144D-03      0.273D-04      -267.26539718    555.766061    0.37880   -0.09180   -0.63741    7
    9      0.926D-04      0.115D-04      -267.26539810    555.766369    0.37898   -0.09176   -0.63717    8
   10      0.367D-04      0.502D-05      -267.26539826    555.766985    0.37924   -0.09177   -0.63724    9
   11      0.147D-04      0.197D-05      -267.26539829    555.766826    0.37929   -0.09177   -0.63724    9
   12      0.651D-05      0.671D-06      -267.26539829    555.766960    0.37931   -0.09177   -0.63724    9
   13      0.227D-05      0.226D-06      -267.26539829    555.766876    0.37932   -0.09177   -0.63724    9
   14      0.631D-06      0.758D-07      -267.26539829    555.766885    0.37932   -0.09177   -0.63724    9
   15      0.193D-06      0.300D-07      -267.26539829    555.766881    0.37932   -0.09177   -0.63724    9
   16      0.825D-07      0.145D-07      -267.26539829    555.766882    0.37932   -0.09177   -0.63724    9
   17      0.375D-07      0.751D-08      -267.26539829    555.766882    0.37932   -0.09177   -0.63724    9
   18      0.223D-07      0.342D-08      -267.26539829    555.766883    0.37932   -0.09177   -0.63724    9
   19      0.114D-07      0.133D-08      -267.26539829    555.766883    0.37932   -0.09177   -0.63724    9
   20      0.444D-08      0.569D-09      -267.26539829    555.766883    0.37932   -0.09177   -0.63724    9
   21      0.166D-08      0.287D-09      -267.26539829    555.766883    0.37932   -0.09177   -0.63724    9
   22      0.757D-09      0.162D-09      -267.26539829    555.766883    0.37932   -0.09177   -0.63724    9
   23      0.447D-09      0.797D-10      -267.26539829    555.766883    0.37932   -0.09177   -0.63724    9
   24      0.264D-09      0.317D-10      -267.26539829    555.766883    0.37932   -0.09177   -0.63724    9
   25      0.934D-10      0.129D-10      -267.26539829    555.766883    0.37932   -0.09177   -0.63724    0

 Final alpha occupancy:  21
 Final beta  occupancy:  20

 !RHF STATE 1.1 Energy               -267.265398288839
 Nuclear energy                       183.22472670
 One-electron energy                 -728.37356628
 Two-electron energy                  277.88344129
 Virial quotient                       -1.00155438
 !RHF STATE 1.1 Dipole moment           0.37931916    -0.09177102    -0.63723697
 Dipole moment /Debye                   0.96407000    -0.23324339    -1.61958874

 Orbital energies:

         1.1          2.1          3.1          4.1          5.1          6.1          7.1          8.1          9.1         10.1
    -20.630497   -20.628868   -11.279260   -11.237835   -11.232189    -1.470281    -1.240891    -1.023093    -0.945282    -0.768540

        11.1         12.1         13.1         14.1         15.1         16.1         17.1         18.1         19.1         20.1
     -0.704638    -0.642982    -0.626764    -0.588984    -0.545017    -0.543293    -0.539029    -0.516915    -0.493129    -0.469695

        21.1         22.1         23.1
     -0.352322     0.181278     0.183502


 **********************************************************************************************************************************
 DATASETS  * FILE   NREC   LENGTH (MB)   RECORD NAMES
              1      18        3.17       500      610      700      900      950      970     1000      129      960     1100   
                                          VAR    BASINP    GEOM    SYMINP    ZMAT    AOBASIS   BASIS     P2S    ABASIS      S 
                                         1400     1410     1200     1210     1080     1600     1650     1700   
                                           T        V       H0       H01     AOSYM     SMH    MOLCAS    OPER   

              2       3        0.77       700     1000     2100   
                                         GEOM     BASIS     RHF  

 PROGRAMS   *        TOTAL       RHF       INT
 CPU TIMES  *         2.32      1.28      0.96
 REAL TIME  *         2.85 SEC
 DISK USED  *       333.90 MB      
 SF USED    *         0.04 MB      
 GA USED    *         0.00 MB       (max)       0.00 MB       (current)
 **********************************************************************************************************************************


1PROGRAM * CCSD (Unrestricted open-shell coupled cluster)     Authors: C. Hampel, H.-J. Werner, 1991, M. Deegan, P.J. Knowles, 1992


 Convergence thresholds:  THRVAR = 1.00D-08  THRDEN = 1.00D-10

 CCSD(T)     terms to be evaluated (factor= 1.000)


 Number of core orbitals:           5 (   5 )
 Number of closed-shell orbitals:  15 (  15 )
 Number of active  orbitals:        1 (   1 )
 Number of external orbitals:      84 (  84 )

 Memory could be reduced to 24.91 Mwords without degradation in triples

 Number of N-1 electron functions:              31
 Number of N-2 electron functions:             465
 Number of singly external CSFs:              2635
 Number of doubly external CSFs:           2537250
 Total number of CSFs:                     2539885

 Molecular orbitals read from record     2100.2  Type=RHF/CANONICAL (state 1.1)

 Integral transformation finished. Total CPU:   0.90 sec, npass=  1  Memory used:  12.63 MW

 Starting RMP2 calculation

 ITER.      SQ.NORM     CORR.ENERGY   TOTAL ENERGY   ENERGY CHANGE        DEN1      VAR(S)    VAR(P)  DIIS     TIME
   1      1.24302428    -0.78636685  -268.05176514    -0.78636685    -0.00304964  0.20D-04  0.11D-02  1  1     1.23
   2      1.24566546    -0.78965568  -268.05505397    -0.00328883    -0.00000474  0.54D-06  0.19D-05  2  2     1.50
   3      1.24573098    -0.78969773  -268.05509602    -0.00004205    -0.00000003  0.16D-07  0.67D-08  3  3     1.80
   4      1.24573193    -0.78969773  -268.05509602    -0.00000000    -0.00000000  0.27D-09  0.38D-10  4  4     2.12
   5      1.24573202    -0.78969776  -268.05509605    -0.00000003    -0.00000000  0.25D-11  0.65D-12  5  5     2.45
   6      1.24573203    -0.78969777  -268.05509606    -0.00000001    -0.00000000  0.28D-13  0.86D-14  6  6     2.81
   7      1.24573203    -0.78969777  -268.05509606     0.00000000    -0.00000000  0.47D-15  0.12D-15  6  1     3.17
   8      1.24573203    -0.78969777  -268.05509606     0.00000000    -0.00000000  0.59D-17  0.13D-17  6  2     3.54

 Norm of t1 vector:      0.03891375      S-energy:    -0.00226998      T1 diagnostic:  0.00055011
 Norm of t2 vector:      0.49418392      P-energy:    -0.78742779
                                         Alpha-Beta:  -0.59341015
                                         Alpha-Alpha: -0.10093844
                                         Beta-Beta:   -0.09307920

 Spin contamination <S**2-Sz**2-Sz>     0.00103959
  Reference energy                   -267.265398288839
  RHF-RMP2 correlation energy          -0.789697766266
 !RHF-RMP2 energy                    -268.055096055105

 Starting UCCSD calculation

 ITER.      SQ.NORM     CORR.ENERGY   TOTAL ENERGY   ENERGY CHANGE        DEN1      VAR(S)    VAR(P)  DIIS     TIME
   1      1.26280034    -0.80904112  -268.07443941    -0.80904112    -0.02515518  0.38D-02  0.59D-02  1  1     9.77
   2      1.29157392    -0.83644984  -268.10184813    -0.02740872    -0.00201084  0.22D-03  0.66D-03  2  2    15.98
   3      1.30151473    -0.84094782  -268.10634610    -0.00449798    -0.00032462  0.19D-03  0.56D-04  3  3    22.23
   4      1.30642827    -0.84242485  -268.10782314    -0.00147703    -0.00007211  0.43D-04  0.14D-04  4  4    28.47
   5      1.30915950    -0.84281308  -268.10821137    -0.00038823    -0.00002369  0.19D-04  0.32D-05  5  5    34.74
   6      1.31110047    -0.84301769  -268.10841597    -0.00020461    -0.00000647  0.42D-05  0.12D-05  6  6    41.04
   7      1.31205100    -0.84307653  -268.10847482    -0.00005885    -0.00000208  0.14D-05  0.37D-06  6  2    47.32
   8      1.31249327    -0.84311925  -268.10851754    -0.00004272    -0.00000065  0.45D-06  0.11D-06  6  1    53.62
   9      1.31267909    -0.84312386  -268.10852215    -0.00000461    -0.00000022  0.15D-06  0.35D-07  6  4    59.92
  10      1.31274247    -0.84312679  -268.10852508    -0.00000293    -0.00000005  0.35D-07  0.95D-08  6  3    66.23
  11      1.31277213    -0.84312555  -268.10852383     0.00000125    -0.00000002  0.13D-07  0.28D-08  6  5    72.52
  12      1.31278257    -0.84312529  -268.10852358     0.00000026    -0.00000000  0.26D-08  0.96D-09  6  6    78.82
  13      1.31278142    -0.84312437  -268.10852266     0.00000092    -0.00000000  0.96D-09  0.29D-09  6  2    85.11
  14      1.31277620    -0.84312352  -268.10852181     0.00000085    -0.00000000  0.21D-09  0.68D-10  6  1    91.38
  15      1.31277211    -0.84312293  -268.10852122     0.00000059    -0.00000000  0.78D-10  0.19D-10  6  4    97.69
  16      1.31276892    -0.84312255  -268.10852084     0.00000038    -0.00000000  0.28D-10  0.63D-11  6  3   103.99
  17      1.31276672    -0.84312231  -268.10852060     0.00000024    -0.00000000  0.10D-10  0.24D-11  6  5   110.28
  18      1.31276581    -0.84312225  -268.10852054     0.00000006    -0.00000000  0.41D-11  0.87D-12  6  6   116.56
  19      1.31276520    -0.84312222  -268.10852051     0.00000003    -0.00000000  0.16D-11  0.37D-12  6  2   122.84
  20      1.31276488    -0.84312221  -268.10852049     0.00000001    -0.00000000  0.60D-12  0.13D-12  6  1   129.13
  21      1.31276472    -0.84312219  -268.10852048     0.00000001    -0.00000000  0.28D-12  0.58D-13  6  4   135.42
  22      1.31276459    -0.84312219  -268.10852048     0.00000001    -0.00000000  0.74D-13  0.21D-13  6  3   141.70
  23      1.31276454    -0.84312218  -268.10852047     0.00000000    -0.00000000  0.21D-13  0.63D-14  6  5   147.97
  24      1.31276453    -0.84312218  -268.10852047    -0.00000000    -0.00000000  0.68D-14  0.23D-14  6  6   154.24
  25      1.31276453    -0.84312219  -268.10852047    -0.00000000    -0.00000000  0.21D-14  0.52D-15  6  2   160.51
  26      1.31276454    -0.84312219  -268.10852048    -0.00000000    -0.00000000  0.77D-15  0.15D-15  6  1   166.78
  27      1.31276455    -0.84312219  -268.10852048    -0.00000000    -0.00000000  0.20D-15  0.63D-16  6  3   173.08
  28      1.31276456    -0.84312219  -268.10852048    -0.00000000    -0.00000000  0.30D-16  0.11D-16  6  4   179.35
  29      1.31276456    -0.84312219  -268.10852048    -0.00000000    -0.00000000  0.71D-17  0.29D-17  6  5   185.63
  30      1.31276456    -0.84312219  -268.10852048    -0.00000000    -0.00000000  0.15D-17  0.54D-18  6  6   191.91
  31      1.31276456    -0.84312219  -268.10852048    -0.00000000    -0.00000000  0.35D-18  0.10D-18  6  2   198.17

 Norm of t1 vector:      0.13872316      S-energy:    -0.00281910      T1 diagnostic:  0.01617114
                                                                       D1 diagnostic:  0.06283223
 Norm of t2 vector:      0.54177527      P-energy:    -0.84030308
                                         Alpha-Beta:  -0.66485996
                                         Alpha-Alpha: -0.09147216
                                         Beta-Beta:   -0.08397097

 Spin contamination <S**2-Sz**2-Sz>     0.00217303

 Memory could be reduced to 28.85 Mwords without degradation in triples
 

 RESULTS
 =======

  Reference energy                   -267.265398288839
  UCCSD singles energy                 -0.002819103984
  UCCSD pair energy                    -0.840303083647
  UCCSD correlation energy             -0.843122187631
  Triples (T) contribution             -0.024975413682
  Total correlation energy             -0.868097601313
 
  RHF-UCCSD energy                   -268.108520476470
  RHF-UCCSD[T] energy                -268.134831601019
  RHF-UCCSD-T energy                 -268.133074593646
 !RHF-UCCSD(T) energy                -268.133495890152

 Program statistics:

 Available memory in ccsd:               999997692
 Min. memory needed in ccsd:               7337057
 Max. memory used in ccsd:                10523002
 Max. memory used in cckext:              10867977 (31 integral passes)
 Max. memory used in cckint:              12633073 ( 1 integral passes)



 **********************************************************************************************************************************
 DATASETS  * FILE   NREC   LENGTH (MB)   RECORD NAMES
              1      18        3.17       500      610      700      900      950      970     1000      129      960     1100   
                                          VAR    BASINP    GEOM    SYMINP    ZMAT    AOBASIS   BASIS     P2S    ABASIS      S 
                                         1400     1410     1200     1210     1080     1600     1650     1700   
                                           T        V       H0       H01     AOSYM     SMH    MOLCAS    OPER   

              2       3        0.77       700     1000     2100   
                                         GEOM     BASIS     RHF  

 PROGRAMS   *        TOTAL  UCCSD(T)       RHF       INT
 CPU TIMES  *       245.46    243.14      1.28      0.96
 REAL TIME  *       254.88 SEC
 DISK USED  *         1.30 GB      
 SF USED    *       553.73 MB      
 GA USED    *         0.00 MB       (max)       0.00 MB       (current)
 **********************************************************************************************************************************

        UCCSD(T)        RHF-SCF 
   -268.13349589   -267.26539829
 **********************************************************************************************************************************
 Variable memory released
