
 Primary working directories    : /tmp/320938.349.gen4.q
 Secondary working directories  : /tmp/320938.349.gen4.q
 Wavefunction directory         : /home/vulcan/mel64643/wfu/
 Main file repository           : /tmp/320938.349.gen4.q/

 ARCHNAME  : Linux/x86_64
 FC        : /opt/intel/compilers_and_libraries_2016.1.150/linux/bin/intel64/ifort
 FCVERSION : 16.0.1
 BLASLIB   : -mkl
 id        : ccgc

 Nodes     nprocs
 n063         3
 Number of processes for MPI-2 version of Molpro:   nprocs(total)=    4   nprocs(compute)=    3   nprocs(helper)=    1
 ga_uses_ma=false, calling ma_init with nominal heap.
 GA-space will be limited to   8.0 MW (determined by -G option)

 Using customized tuning parameters: mindgm=10; mindgv=16; mindgc=4; mindgr=1; noblas=0; mincuda=1000; minvec=7
 default implementation of scratch files=sf  

 ***,Frequencies for min3
 memory,1000,m
 gthresh,energy=1.0d-10,orbital=1.0d-10,oneint=1.0d-16,twoint=1.0d-16,optgrad=1.0d-6,compress=1.0d-13
 geomtyp=xyz
 
  geometry = {
  12
  arbitrary comment
     C    1.776964391707    0.711398808326   -0.047331391796
     C    0.491811976407   -0.059338630746   -0.196506267364
     C    0.450812454530   -1.536654983220    0.101493944206
     O   -0.560816648988    0.727098415985    0.254405968973
     O   -1.838027184698    0.092383019464   -0.120534173879
     H    2.585208255750    0.210608403123   -0.611480547678
     H    1.660589346560    1.742238400422   -0.426654554800
     H    2.095089802261    0.773389645019    1.017581458587
     H   -0.505501304070   -1.982952164832   -0.219975080329
     H    1.281248828309   -2.047773079873   -0.417057819069
     H    0.561220359713   -1.719490373973    1.194830324132
     H   -1.988141052038    0.550932912142   -0.967024089132
  }
 
 basis=cc-pvdz
 {rhf;maxit,200}
 {uccsd(t);maxit,200}

 Variables initialized (661), CPU time= 0.00 sec
 Commands  initialized (458), CPU time= 0.01 sec, 486 directives.
 Default parameters read. Elapsed time= 0.06 sec

 Checking input...
 Passed
1


                                         ***  PROGRAM SYSTEM MOLPRO  ***
                         Copyright, University College Cardiff Consultants Limited, 2008

                                    Version 2010.1 linked May 16 2016 07:17:05


 **********************************************************************************************************************************
 LABEL *   Frequencies for min3                                                          
 Linux-4.4.3/n063(x86_64) 64 bit mpp version                                             DATE: 07-Mar-20          TIME: 03:00:50  
 **********************************************************************************************************************************

 SHA1:             9e8077add272b0f3cad6f7df79ec5211205f459d
 **********************************************************************************************************************************

 THRESHOLDS:

 ZERO    =  1.00D-12  ONEINT  =  1.00D-16  TWOINT  =  1.00D-16  PREFAC  =  1.00D-14  LOCALI  =  1.00D-09  EORDER  =  1.00D-04
 ENERGY  =  1.00D-10  ETEST   =  0.00D+00  EDENS   =  0.00D+00  THRDEDEF=  1.00D-06  GRADIENT=  1.00D-02  STEP    =  1.00D-03
 ORBITAL =  1.00D-10  CIVEC   =  1.00D-05  COEFF   =  1.00D-04  PRINTCI =  5.00D-02  PUNCHCI =  9.90D+01  OPTGRAD =  1.00D-06
 OPTENERG=  1.00D-06  OPTSTEP =  3.00D-04  THRGRAD =  1.00D-10  COMPRESS=  1.00D-13  VARMIN  =  1.00D-07  VARMAX  =  1.00D-03
 THRDOUB =  0.00D+00  THRDIV  =  1.00D-05  THRRED  =  1.00D-07  THRPSP  =  1.00D+00  THRDC   =  1.00D-10  THRCS   =  1.00D-10
 THRNRM  =  1.00D-08  THREQ   =  0.00D+00  THRDE   =  1.00D+00  THRREF  =  1.00D-05  SPARFAC =  1.00D+00  THRDLP  =  1.00D-07
 THRDIA  =  1.00D-10  THRDLS  =  1.00D-07  THRGPS  =  0.00D+00  THRKEX  =  0.00D+00  THRDIS  =  2.00D-01  THRVAR  =  1.00D-10
 THRLOC  =  1.00D-06  THRGAP  =  1.00D-06  THRLOCT = -1.00D+00  THRGAPT = -1.00D+00  THRORB  =  1.00D-06  THRMLTP =  0.00D+00
 THRCPQCI=  1.00D-10  KEXTA   =  0.00D+00  THRCOARS=  0.00D+00  SYMTOL  =  1.00D-06  GRADTOL =  1.00D-06  THROVL  =  1.00D-08
 THRORTH =  1.00D-08  GRID    =  1.00D-06  GRIDMAX =  1.00D-03  DTMAX   =  0.00D+00

 SETTING GEOMTYP        =    XYZ

 Variable memory set to 1000000000 words,  buffer space   230000 words

 SETTING BASIS          =    CC-PVDZ


 Recomputing integrals since basis changed


 Using spherical harmonics

 Library entry C      S cc-pVDZ              selected for orbital group  1
 Library entry C      P cc-pVDZ              selected for orbital group  1
 Library entry C      D cc-pVDZ              selected for orbital group  1
 Library entry O      S cc-pVDZ              selected for orbital group  2
 Library entry O      P cc-pVDZ              selected for orbital group  2
 Library entry O      D cc-pVDZ              selected for orbital group  2
 Library entry H      S cc-pVDZ              selected for orbital group  3
 Library entry H      P cc-pVDZ              selected for orbital group  3

1PROGRAM * SEWARD (Integral evaluation for generally contracted gaussian basis sets)     Author: Roland Lindh, 1990

 Geometry written to block  1 of record 700


 Point group  C1  



 ATOMIC COORDINATES

 NR  ATOM    CHARGE       X              Y              Z

   1  C       6.00    3.357976046    1.344348918   -0.089443368
   2  C       6.00    0.929389944   -0.112133761   -0.371343028
   3  C       6.00    0.851912076   -2.903857077    0.191795759
   4  O       8.00   -1.059789877    1.374016877    0.480757608
   5  O       8.00   -3.473368001    0.174578606   -0.227776578
   6  H       1.00    4.885335596    0.397992203   -1.155530770
   7  H       1.00    3.138059082    3.292353432   -0.806260261
   8  H       1.00    3.959145947    1.461494622    1.922950273
   9  H       1.00   -0.955259024   -3.747236523   -0.415692658
  10  H       1.00    2.421209392   -3.869730300   -0.788125059
  11  H       1.00    1.060552779   -3.249365892    2.257902086
  12  H       1.00   -3.757042099    1.041112321   -1.827410691

 Bond lengths in Bohr (Angstrom)

 1-2  2.845846037  1-6  2.089248807  1-7  2.087321613  1-8  2.103534296  2-3  2.849008105
     ( 1.505956863)     ( 1.105582853)     ( 1.104563026)     ( 1.113142408)     ( 1.507630158)

  2- 4  2.625177245   3- 9  2.084753810   3-10  2.087067311   3-11  2.105160954   4- 5  2.786760166
       ( 1.389183968)       ( 1.103204203)       ( 1.104428454)       ( 1.114003198)       ( 1.474689967)

  5-12  1.841244407
       ( 0.974344577)

 Bond angles

  1-2-3  120.33996008   1-2-4  108.95023734   2-1-6  109.96821131   2-1-7  110.71409879

  2- 1- 8  111.54020273   2- 3- 9  111.24693505   2- 3-10  109.89090391   2- 3-11  110.61726754

  2- 4- 5  109.27340942   3- 2- 4  118.03214388   4- 5-12   98.72910006   6- 1- 7  108.93649140

  6- 1- 8  107.72573049   7- 1- 8  107.85883825   9- 3-10  109.13300905   9- 3-11  107.78864932

 10- 3-11  108.07930812

 NUCLEAR CHARGE:                   41
 NUMBER OF PRIMITIVE AOS:         184
 NUMBER OF SYMMETRY AOS:          179
 NUMBER OF CONTRACTIONS:          105   ( 105A   )
 NUMBER OF CORE ORBITALS:           5   (   5A   )
 NUMBER OF VALENCE ORBITALS:       27   (  27A   )


 NUCLEAR REPULSION ENERGY  183.21776421


 Eigenvalues of metric

         1 0.345E-02 0.436E-02 0.105E-01 0.141E-01 0.182E-01 0.214E-01 0.331E-01 0.345E-01


 Contracted 2-electron integrals neglected if value below      1.0D-16
 AO integral compression algorithm  1   Integral accuracy      1.0D-16

     127.664 MB (compressed) written to integral file ( 93.2%)

     Node minimum: 41.419 MB, node maximum: 43.254 MB


 NUMBER OF SORTED TWO-ELECTRON INTEGRALS:    5164320.     BUFFER LENGTH:  32768
 NUMBER OF SEGMENTS:   1  SEGMENT LENGTH:    5164320      RECORD LENGTH: 524288

 Memory used in sort:       5.72 MW

 SORT1 READ    17075251. AND WROTE     5135895. INTEGRALS IN     15 RECORDS. CPU TIME:     0.22 SEC, REAL TIME:     0.25 SEC
 SORT2 READ    15396593. AND WROTE    15487395. INTEGRALS IN    474 RECORDS. CPU TIME:     0.06 SEC, REAL TIME:     0.10 SEC

 Node minimum:     5160610.  Node maximum:     5164320. integrals

 OPERATOR DM      FOR CENTER  0  COORDINATES:    0.000000    0.000000    0.000000


 **********************************************************************************************************************************
 DATASETS  * FILE   NREC   LENGTH (MB)   RECORD NAMES
              1      18        3.17       500      610      700      900      950      970     1000      129      960     1100   
                                          VAR    BASINP    GEOM    SYMINP    ZMAT    AOBASIS   BASIS     P2S    ABASIS      S 
                                         1400     1410     1200     1210     1080     1600     1650     1700   
                                           T        V       H0       H01     AOSYM     SMH    MOLCAS    OPER   

 PROGRAMS   *        TOTAL       INT
 CPU TIMES  *         0.95      0.88
 REAL TIME  *         1.40 SEC
 DISK USED  *       305.27 MB      
 GA USED    *         0.00 MB       (max)       0.00 MB       (current)
 **********************************************************************************************************************************

1PROGRAM * RHF-SCF (OPEN SHELL)       Authors: W. Meyer, H.-J. Werner


 NUMBER OF ELECTRONS:      21+   20-    SPACE SYMMETRY=1    SPIN SYMMETRY: Doublet 
 CONVERGENCE THRESHOLDS:    1.00E-10 (Density)    1.00E-11 (Energy)
 MAX. NUMBER OF ITERATIONS:      200
 INTERPOLATION TYPE:            DIIS
 INTERPOLATION STEPS:              2 (START)      1 (STEP)
 LEVEL SHIFTS:                 -0.30 (CLOSED)  0.00 (OPEN) 



 Orbital guess generated from atomic densities. Full valence occupancy:   32

 Molecular orbital dump at record        2100.2

 ITERATION    DDIFF          GRAD             ENERGY        2-EL.EN.            DIPOLE MOMENTS         DIIS
    1      0.000D+00      0.000D+00      -267.17822916    555.805981    0.56979    0.05050   -0.74943    0
    2      0.000D+00      0.617D-02      -267.24891725    555.729411    0.41371   -0.13025   -0.59854    1
    3      0.928D-02      0.214D-02      -267.26110197    555.647125    0.39342   -0.05841   -0.62599    2
    4      0.336D-02      0.912D-03      -267.26471747    555.799572    0.37879   -0.09857   -0.64240    3
    5      0.186D-02      0.364D-03      -267.26528855    555.770994    0.38134   -0.09210   -0.63540    4
    6      0.793D-03      0.110D-03      -267.26536548    555.757258    0.37960   -0.09190   -0.63815    5
    7      0.278D-03      0.513D-04      -267.26538578    555.754245    0.37887   -0.09164   -0.63765    6
    8      0.144D-03      0.273D-04      -267.26539188    555.752305    0.37914   -0.09176   -0.63786    7
    9      0.928D-04      0.115D-04      -267.26539281    555.752615    0.37932   -0.09171   -0.63762    8
   10      0.367D-04      0.503D-05      -267.26539296    555.753230    0.37958   -0.09173   -0.63769    9
   11      0.147D-04      0.197D-05      -267.26539299    555.753071    0.37963   -0.09172   -0.63769    9
   12      0.652D-05      0.672D-06      -267.26539299    555.753205    0.37965   -0.09172   -0.63769    9
   13      0.228D-05      0.227D-06      -267.26539299    555.753121    0.37966   -0.09172   -0.63769    9
   14      0.632D-06      0.759D-07      -267.26539299    555.753130    0.37966   -0.09172   -0.63769    9
   15      0.193D-06      0.301D-07      -267.26539299    555.753126    0.37966   -0.09172   -0.63769    9
   16      0.827D-07      0.145D-07      -267.26539299    555.753127    0.37966   -0.09172   -0.63769    9
   17      0.375D-07      0.752D-08      -267.26539299    555.753127    0.37966   -0.09172   -0.63769    9
   18      0.223D-07      0.342D-08      -267.26539299    555.753127    0.37966   -0.09172   -0.63769    9
   19      0.114D-07      0.134D-08      -267.26539299    555.753127    0.37966   -0.09172   -0.63769    9
   20      0.445D-08      0.570D-09      -267.26539299    555.753127    0.37966   -0.09172   -0.63769    9
   21      0.166D-08      0.288D-09      -267.26539299    555.753127    0.37966   -0.09172   -0.63769    9
   22      0.758D-09      0.162D-09      -267.26539299    555.753127    0.37966   -0.09172   -0.63769    9
   23      0.447D-09      0.799D-10      -267.26539299    555.753127    0.37966   -0.09172   -0.63769    9
   24      0.264D-09      0.318D-10      -267.26539299    555.753127    0.37966   -0.09172   -0.63769    9
   25      0.937D-10      0.130D-10      -267.26539299    555.753127    0.37966   -0.09172   -0.63769    0

 Final alpha occupancy:  21
 Final beta  occupancy:  20

 !RHF STATE 1.1 Energy               -267.265392993028
 Nuclear energy                       183.21776421
 One-electron energy                 -728.35972091
 Two-electron energy                  277.87656370
 Virial quotient                       -1.00155515
 !RHF STATE 1.1 Dipole moment           0.37965893    -0.09172494    -0.63768583
 Dipole moment /Debye                   0.96493353    -0.23312626    -1.62072955

 Orbital energies:

         1.1          2.1          3.1          4.1          5.1          6.1          7.1          8.1          9.1         10.1
    -20.630501   -20.628878   -11.279251   -11.237822   -11.232197    -1.470254    -1.240869    -1.023117    -0.945281    -0.768536

        11.1         12.1         13.1         14.1         15.1         16.1         17.1         18.1         19.1         20.1
     -0.704640    -0.642948    -0.626767    -0.588902    -0.545015    -0.543454    -0.538999    -0.516996    -0.493120    -0.469635

        21.1         22.1         23.1
     -0.352230     0.181288     0.183508


 **********************************************************************************************************************************
 DATASETS  * FILE   NREC   LENGTH (MB)   RECORD NAMES
              1      18        3.17       500      610      700      900      950      970     1000      129      960     1100   
                                          VAR    BASINP    GEOM    SYMINP    ZMAT    AOBASIS   BASIS     P2S    ABASIS      S 
                                         1400     1410     1200     1210     1080     1600     1650     1700   
                                           T        V       H0       H01     AOSYM     SMH    MOLCAS    OPER   

              2       3        0.77       700     1000     2100   
                                         GEOM     BASIS     RHF  

 PROGRAMS   *        TOTAL       RHF       INT
 CPU TIMES  *         2.05      1.10      0.88
 REAL TIME  *         2.66 SEC
 DISK USED  *       321.83 MB      
 SF USED    *         0.04 MB      
 GA USED    *         0.00 MB       (max)       0.00 MB       (current)
 **********************************************************************************************************************************


1PROGRAM * CCSD (Unrestricted open-shell coupled cluster)     Authors: C. Hampel, H.-J. Werner, 1991, M. Deegan, P.J. Knowles, 1992


 Convergence thresholds:  THRVAR = 1.00D-08  THRDEN = 1.00D-10

 CCSD(T)     terms to be evaluated (factor= 1.000)


 Number of core orbitals:           5 (   5 )
 Number of closed-shell orbitals:  15 (  15 )
 Number of active  orbitals:        1 (   1 )
 Number of external orbitals:      84 (  84 )

 Memory could be reduced to 24.91 Mwords without degradation in triples

 Number of N-1 electron functions:              31
 Number of N-2 electron functions:             465
 Number of singly external CSFs:              2635
 Number of doubly external CSFs:           2537250
 Total number of CSFs:                     2539885

 Molecular orbitals read from record     2100.2  Type=RHF/CANONICAL (state 1.1)

 Integral transformation finished. Total CPU:   0.92 sec, npass=  1  Memory used:  12.63 MW

 Starting RMP2 calculation

 ITER.      SQ.NORM     CORR.ENERGY   TOTAL ENERGY   ENERGY CHANGE        DEN1      VAR(S)    VAR(P)  DIIS     TIME
   1      1.24302764    -0.78637072  -268.05176371    -0.78637072    -0.00304970  0.20D-04  0.11D-02  1  1     1.25
   2      1.24566898    -0.78965961  -268.05505260    -0.00328889    -0.00000474  0.54D-06  0.19D-05  2  2     1.56
   3      1.24573453    -0.78970168  -268.05509467    -0.00004206    -0.00000003  0.16D-07  0.68D-08  3  3     1.89
   4      1.24573548    -0.78970168  -268.05509467    -0.00000000    -0.00000000  0.27D-09  0.38D-10  4  4     2.26
   5      1.24573557    -0.78970171  -268.05509470    -0.00000003    -0.00000000  0.25D-11  0.65D-12  5  5     2.65
   6      1.24573558    -0.78970172  -268.05509471    -0.00000001    -0.00000000  0.28D-13  0.87D-14  6  6     3.06
   7      1.24573558    -0.78970172  -268.05509471     0.00000000    -0.00000000  0.47D-15  0.12D-15  6  1     3.48
   8      1.24573558    -0.78970172  -268.05509471     0.00000000    -0.00000000  0.60D-17  0.13D-17  6  2     3.89

 Norm of t1 vector:      0.03892949      S-energy:    -0.00227126      T1 diagnostic:  0.00055029
 Norm of t2 vector:      0.49418627      P-energy:    -0.78743045
                                         Alpha-Beta:  -0.59341224
                                         Alpha-Alpha: -0.10094016
                                         Beta-Beta:   -0.09307805

 Spin contamination <S**2-Sz**2-Sz>     0.00104039
  Reference energy                   -267.265392993027
  RHF-RMP2 correlation energy          -0.789701715633
 !RHF-RMP2 energy                    -268.055094708660

 Starting UCCSD calculation

 ITER.      SQ.NORM     CORR.ENERGY   TOTAL ENERGY   ENERGY CHANGE        DEN1      VAR(S)    VAR(P)  DIIS     TIME
   1      1.26280400    -0.80904542  -268.07443841    -0.80904542    -0.02515533  0.38D-02  0.59D-02  1  1     9.27
   2      1.29157843    -0.83645428  -268.10184727    -0.02740886    -0.00201093  0.22D-03  0.66D-03  2  2    14.66
   3      1.30151996    -0.84095225  -268.10634524    -0.00449797    -0.00032466  0.19D-03  0.56D-04  3  3    20.04
   4      1.30643436    -0.84242940  -268.10782239    -0.00147715    -0.00007214  0.43D-04  0.14D-04  4  4    25.49
   5      1.30916648    -0.84281771  -268.10821070    -0.00038831    -0.00002370  0.19D-04  0.32D-05  5  5    30.97
   6      1.31110874    -0.84302241  -268.10841540    -0.00020470    -0.00000647  0.42D-05  0.12D-05  6  6    37.02
   7      1.31206032    -0.84308132  -268.10847431    -0.00005891    -0.00000209  0.14D-05  0.37D-06  6  2    44.71
   8      1.31250323    -0.84312407  -268.10851706    -0.00004275    -0.00000065  0.45D-06  0.11D-06  6  1    52.40
   9      1.31268935    -0.84312869  -268.10852168    -0.00000462    -0.00000022  0.15D-06  0.35D-07  6  4    60.09
  10      1.31275285    -0.84313162  -268.10852462    -0.00000294    -0.00000005  0.35D-07  0.96D-08  6  3    67.80
  11      1.31278250    -0.84313037  -268.10852336     0.00000125    -0.00000002  0.13D-07  0.28D-08  6  5    75.49
  12      1.31279294    -0.84313011  -268.10852311     0.00000026    -0.00000000  0.26D-08  0.96D-09  6  6    83.11
  13      1.31279180    -0.84312920  -268.10852219     0.00000092    -0.00000000  0.96D-09  0.29D-09  6  2    90.72
  14      1.31278658    -0.84312835  -268.10852134     0.00000085    -0.00000000  0.21D-09  0.68D-10  6  1    98.47
  15      1.31278249    -0.84312776  -268.10852075     0.00000059    -0.00000000  0.78D-10  0.19D-10  6  4   106.13
  16      1.31277930    -0.84312738  -268.10852037     0.00000038    -0.00000000  0.28D-10  0.63D-11  6  3   113.74
  17      1.31277710    -0.84312714  -268.10852013     0.00000024    -0.00000000  0.10D-10  0.24D-11  6  5   121.42
  18      1.31277619    -0.84312708  -268.10852007     0.00000006    -0.00000000  0.41D-11  0.88D-12  6  6   129.11
  19      1.31277557    -0.84312704  -268.10852004     0.00000003    -0.00000000  0.16D-11  0.37D-12  6  2   136.80
  20      1.31277525    -0.84312703  -268.10852002     0.00000001    -0.00000000  0.60D-12  0.13D-12  6  1   144.51
  21      1.31277509    -0.84312702  -268.10852001     0.00000001    -0.00000000  0.28D-12  0.58D-13  6  4   152.21
  22      1.31277497    -0.84312701  -268.10852000     0.00000001    -0.00000000  0.74D-13  0.22D-13  6  3   159.90
  23      1.31277491    -0.84312701  -268.10852000     0.00000000    -0.00000000  0.22D-13  0.63D-14  6  5   166.83
  24      1.31277490    -0.84312701  -268.10852000    -0.00000000    -0.00000000  0.68D-14  0.23D-14  6  6   172.32
  25      1.31277491    -0.84312701  -268.10852000    -0.00000000    -0.00000000  0.21D-14  0.53D-15  6  2   177.78
  26      1.31277491    -0.84312701  -268.10852000    -0.00000000    -0.00000000  0.77D-15  0.15D-15  6  1   183.28
  27      1.31277492    -0.84312701  -268.10852001    -0.00000000    -0.00000000  0.20D-15  0.63D-16  6  3   188.80
  28      1.31277493    -0.84312701  -268.10852001    -0.00000000    -0.00000000  0.30D-16  0.11D-16  6  4   194.28
  29      1.31277493    -0.84312701  -268.10852001    -0.00000000    -0.00000000  0.71D-17  0.29D-17  6  5   199.77
  30      1.31277493    -0.84312701  -268.10852001    -0.00000000    -0.00000000  0.15D-17  0.54D-18  6  6   205.25
  31      1.31277493    -0.84312701  -268.10852001    -0.00000000    -0.00000000  0.36D-18  0.11D-18  6  2   210.73

 Norm of t1 vector:      0.13874493      S-energy:    -0.00282092      T1 diagnostic:  0.01617236
                                                                       D1 diagnostic:  0.06281198
 Norm of t2 vector:      0.54177927      P-energy:    -0.84030609
                                         Alpha-Beta:  -0.66486252
                                         Alpha-Alpha: -0.09147389
                                         Beta-Beta:   -0.08396968

 Spin contamination <S**2-Sz**2-Sz>     0.00217599

 Memory could be reduced to 28.85 Mwords without degradation in triples
 

 RESULTS
 =======

  Reference energy                   -267.265392993027
  UCCSD singles energy                 -0.002820921435
  UCCSD pair energy                    -0.840306091768
  UCCSD correlation energy             -0.843127013203
  Triples (T) contribution             -0.024975836030
  Total correlation energy             -0.868102849233
 
  RHF-UCCSD energy                   -268.108520006230
  RHF-UCCSD[T] energy                -268.134831581682
  RHF-UCCSD-T energy                 -268.133074517294
 !RHF-UCCSD(T) energy                -268.133495842260

 Program statistics:

 Available memory in ccsd:               999997692
 Min. memory needed in ccsd:               7337057
 Max. memory used in ccsd:                10523002
 Max. memory used in cckext:              10867977 (31 integral passes)
 Max. memory used in cckint:              12633073 ( 1 integral passes)



 **********************************************************************************************************************************
 DATASETS  * FILE   NREC   LENGTH (MB)   RECORD NAMES
              1      18        3.17       500      610      700      900      950      970     1000      129      960     1100   
                                          VAR    BASINP    GEOM    SYMINP    ZMAT    AOBASIS   BASIS     P2S    ABASIS      S 
                                         1400     1410     1200     1210     1080     1600     1650     1700   
                                           T        V       H0       H01     AOSYM     SMH    MOLCAS    OPER   

              2       3        0.77       700     1000     2100   
                                         GEOM     BASIS     RHF  

 PROGRAMS   *        TOTAL  UCCSD(T)       RHF       INT
 CPU TIMES  *       258.91    256.86      1.10      0.88
 REAL TIME  *       271.29 SEC
 DISK USED  *         1.29 GB      
 SF USED    *       553.73 MB      
 GA USED    *         0.00 MB       (max)       0.00 MB       (current)
 **********************************************************************************************************************************

        UCCSD(T)        RHF-SCF 
   -268.13349584   -267.26539299
 **********************************************************************************************************************************
 Variable memory released
