
 Primary working directories    : /tmp/320938.32.gen4.q
 Secondary working directories  : /tmp/320938.32.gen4.q
 Wavefunction directory         : /home/vulcan/mel64643/wfu/
 Main file repository           : /tmp/320938.32.gen4.q/

 ARCHNAME  : Linux/x86_64
 FC        : /opt/intel/compilers_and_libraries_2016.1.150/linux/bin/intel64/ifort
 FCVERSION : 16.0.1
 BLASLIB   : -mkl
 id        : ccgc

 Nodes     nprocs
 n061         3
 Number of processes for MPI-2 version of Molpro:   nprocs(total)=    4   nprocs(compute)=    3   nprocs(helper)=    1
 ga_uses_ma=false, calling ma_init with nominal heap.
 GA-space will be limited to   8.0 MW (determined by -G option)

 Using customized tuning parameters: mindgm=10; mindgv=16; mindgc=4; mindgr=1; noblas=0; mincuda=1000; minvec=7
 default implementation of scratch files=sf  

 ***,Frequencies for min3
 memory,1000,m
 gthresh,energy=1.0d-10,orbital=1.0d-10,oneint=1.0d-16,twoint=1.0d-16,optgrad=1.0d-6,compress=1.0d-13
 geomtyp=xyz
 
  geometry = {
  12
  arbitrary comment
     C    1.776964391707    0.711398808326   -0.047331391796
     C    0.491811976407   -0.059992870174   -0.196493901896
     C    0.450332819107   -1.536294019674    0.101417522804
     O   -0.560767745493    0.727234937526    0.254453964104
     O   -1.837840335593    0.092269037726   -0.120744006066
     H    2.585111305565    0.211538876738   -0.611728301163
     H    1.660272748897    1.742940268964   -0.426107706419
     H    2.093667387327    0.773345165132    1.017041605212
     H   -0.504734680243   -1.982504781782   -0.218897340935
     H    1.281864845990   -2.047570826348   -0.417265405050
     H    0.563038971922   -1.719325199080    1.195167537210
     H   -1.987536971008    0.551664501057   -0.964659522613
  }
 
 basis=cc-pvdz
 {rhf;maxit,200}
 {uccsd(t);maxit,200}

 Variables initialized (661), CPU time= 0.00 sec
 Commands  initialized (458), CPU time= 0.00 sec, 486 directives.
 Default parameters read. Elapsed time= 0.04 sec

 Checking input...
 Passed
1


                                         ***  PROGRAM SYSTEM MOLPRO  ***
                         Copyright, University College Cardiff Consultants Limited, 2008

                                    Version 2010.1 linked May 16 2016 07:17:05


 **********************************************************************************************************************************
 LABEL *   Frequencies for min3                                                          
 Linux-4.4.3/n061(x86_64) 64 bit mpp version                                             DATE: 07-Mar-20          TIME: 01:08:05  
 **********************************************************************************************************************************

 SHA1:             9e8077add272b0f3cad6f7df79ec5211205f459d
 **********************************************************************************************************************************

 THRESHOLDS:

 ZERO    =  1.00D-12  ONEINT  =  1.00D-16  TWOINT  =  1.00D-16  PREFAC  =  1.00D-14  LOCALI  =  1.00D-09  EORDER  =  1.00D-04
 ENERGY  =  1.00D-10  ETEST   =  0.00D+00  EDENS   =  0.00D+00  THRDEDEF=  1.00D-06  GRADIENT=  1.00D-02  STEP    =  1.00D-03
 ORBITAL =  1.00D-10  CIVEC   =  1.00D-05  COEFF   =  1.00D-04  PRINTCI =  5.00D-02  PUNCHCI =  9.90D+01  OPTGRAD =  1.00D-06
 OPTENERG=  1.00D-06  OPTSTEP =  3.00D-04  THRGRAD =  1.00D-10  COMPRESS=  1.00D-13  VARMIN  =  1.00D-07  VARMAX  =  1.00D-03
 THRDOUB =  0.00D+00  THRDIV  =  1.00D-05  THRRED  =  1.00D-07  THRPSP  =  1.00D+00  THRDC   =  1.00D-10  THRCS   =  1.00D-10
 THRNRM  =  1.00D-08  THREQ   =  0.00D+00  THRDE   =  1.00D+00  THRREF  =  1.00D-05  SPARFAC =  1.00D+00  THRDLP  =  1.00D-07
 THRDIA  =  1.00D-10  THRDLS  =  1.00D-07  THRGPS  =  0.00D+00  THRKEX  =  0.00D+00  THRDIS  =  2.00D-01  THRVAR  =  1.00D-10
 THRLOC  =  1.00D-06  THRGAP  =  1.00D-06  THRLOCT = -1.00D+00  THRGAPT = -1.00D+00  THRORB  =  1.00D-06  THRMLTP =  0.00D+00
 THRCPQCI=  1.00D-10  KEXTA   =  0.00D+00  THRCOARS=  0.00D+00  SYMTOL  =  1.00D-06  GRADTOL =  1.00D-06  THROVL  =  1.00D-08
 THRORTH =  1.00D-08  GRID    =  1.00D-06  GRIDMAX =  1.00D-03  DTMAX   =  0.00D+00

 SETTING GEOMTYP        =    XYZ

 Variable memory set to 1000000000 words,  buffer space   230000 words

 SETTING BASIS          =    CC-PVDZ


 Recomputing integrals since basis changed


 Using spherical harmonics

 Library entry C      S cc-pVDZ              selected for orbital group  1
 Library entry C      P cc-pVDZ              selected for orbital group  1
 Library entry C      D cc-pVDZ              selected for orbital group  1
 Library entry O      S cc-pVDZ              selected for orbital group  2
 Library entry O      P cc-pVDZ              selected for orbital group  2
 Library entry O      D cc-pVDZ              selected for orbital group  2
 Library entry H      S cc-pVDZ              selected for orbital group  3
 Library entry H      P cc-pVDZ              selected for orbital group  3

1PROGRAM * SEWARD (Integral evaluation for generally contracted gaussian basis sets)     Author: Roland Lindh, 1990

 Geometry written to block  1 of record 700


 Point group  C1  



 ATOMIC COORDINATES

 NR  ATOM    CHARGE       X              Y              Z

   1  C       6.00    3.357976046    1.344348918   -0.089443368
   2  C       6.00    0.929389944   -0.113370094   -0.371319661
   3  C       6.00    0.851005696   -2.903174955    0.191651343
   4  O       8.00   -1.059697462    1.374274865    0.480848305
   5  O       8.00   -3.473014908    0.174363212   -0.228173103
   6  H       1.00    4.885152387    0.399750543   -1.155998956
   7  H       1.00    3.137460799    3.293679772   -0.805226868
   8  H       1.00    3.956457972    1.461410567    1.921930098
   9  H       1.00   -0.953810315   -3.746391092   -0.413656025
  10  H       1.00    2.422373496   -3.869348096   -0.788517340
  11  H       1.00    1.063989458   -3.249053757    2.258539326
  12  H       1.00   -3.755900551    1.042494823   -1.822942308

 Bond lengths in Bohr (Angstrom)

 1-2  2.846476668  1-6  2.088557993  1-7  2.088268127  1-8  2.101786684  2-3  2.847119878
     ( 1.506290578)     ( 1.105217289)     ( 1.105063899)     ( 1.112217611)     ( 1.506630951)

  2- 4  2.625975338   3- 9  2.082011359   3-10  2.088879592   3-11  2.106423548   4- 5  2.786862111
       ( 1.389606300)       ( 1.101752960)       ( 1.105387473)       ( 1.114671334)       ( 1.474743914)

  5-12  1.837652197
       ( 0.972443661)

 Bond angles

  1-2-3  120.37866573   1-2-4  108.90555081   2-1-6  109.97910901   2-1-7  110.73242559

  2- 1- 8  111.48357658   2- 3- 9  111.29844133   2- 3-10  109.86026588   2- 3-11  110.61795252

  2- 4- 5  109.23589550   3- 2- 4  118.03986083   4- 5-12   98.66703911   6- 1- 7  108.92668613

  6- 1- 8  107.79888552   7- 1- 8  107.82420020   9- 3-10  109.16888343   9- 3-11  107.84380128

 10- 3-11  107.96371150

 NUCLEAR CHARGE:                   41
 NUMBER OF PRIMITIVE AOS:         184
 NUMBER OF SYMMETRY AOS:          179
 NUMBER OF CONTRACTIONS:          105   ( 105A   )
 NUMBER OF CORE ORBITALS:           5   (   5A   )
 NUMBER OF VALENCE ORBITALS:       27   (  27A   )


 NUCLEAR REPULSION ENERGY  183.23977205


 Eigenvalues of metric

         1 0.345E-02 0.435E-02 0.105E-01 0.141E-01 0.182E-01 0.214E-01 0.331E-01 0.345E-01


 Contracted 2-electron integrals neglected if value below      1.0D-16
 AO integral compression algorithm  1   Integral accuracy      1.0D-16

     127.402 MB (compressed) written to integral file ( 93.4%)

     Node minimum: 41.419 MB, node maximum: 43.778 MB


 NUMBER OF SORTED TWO-ELECTRON INTEGRALS:    5164320.     BUFFER LENGTH:  32768
 NUMBER OF SEGMENTS:   1  SEGMENT LENGTH:    5164320      RECORD LENGTH: 524288

 Memory used in sort:       5.72 MW

 SORT1 READ    17075332. AND WROTE     5135958. INTEGRALS IN     15 RECORDS. CPU TIME:     0.21 SEC, REAL TIME:     0.25 SEC
 SORT2 READ    15396796. AND WROTE    15487395. INTEGRALS IN    483 RECORDS. CPU TIME:     0.06 SEC, REAL TIME:     0.11 SEC

 Node minimum:     5160610.  Node maximum:     5164320. integrals

 OPERATOR DM      FOR CENTER  0  COORDINATES:    0.000000    0.000000    0.000000


 **********************************************************************************************************************************
 DATASETS  * FILE   NREC   LENGTH (MB)   RECORD NAMES
              1      18        3.17       500      610      700      900      950      970     1000      129      960     1100   
                                          VAR    BASINP    GEOM    SYMINP    ZMAT    AOBASIS   BASIS     P2S    ABASIS      S 
                                         1400     1410     1200     1210     1080     1600     1650     1700   
                                           T        V       H0       H01     AOSYM     SMH    MOLCAS    OPER   

 PROGRAMS   *        TOTAL       INT
 CPU TIMES  *         0.95      0.91
 REAL TIME  *         1.35 SEC
 DISK USED  *       305.18 MB      
 GA USED    *         0.00 MB       (max)       0.00 MB       (current)
 **********************************************************************************************************************************

1PROGRAM * RHF-SCF (OPEN SHELL)       Authors: W. Meyer, H.-J. Werner


 NUMBER OF ELECTRONS:      21+   20-    SPACE SYMMETRY=1    SPIN SYMMETRY: Doublet 
 CONVERGENCE THRESHOLDS:    1.00E-10 (Density)    1.00E-11 (Energy)
 MAX. NUMBER OF ITERATIONS:      200
 INTERPOLATION TYPE:            DIIS
 INTERPOLATION STEPS:              2 (START)      1 (STEP)
 LEVEL SHIFTS:                 -0.30 (CLOSED)  0.00 (OPEN) 



 Orbital guess generated from atomic densities. Full valence occupancy:   32

 Molecular orbital dump at record        2100.2

 ITERATION    DDIFF          GRAD             ENERGY        2-EL.EN.            DIPOLE MOMENTS         DIIS
    1      0.000D+00      0.000D+00      -267.17830314    555.845029    0.57299    0.05016   -0.74632    0
    2      0.000D+00      0.617D-02      -267.24900491    555.768187    0.41532   -0.13061   -0.59678    1
    3      0.928D-02      0.214D-02      -267.26119347    555.685747    0.39479   -0.05843   -0.62423    2
    4      0.336D-02      0.913D-03      -267.26481054    555.838404    0.37986   -0.09856   -0.64085    3
    5      0.186D-02      0.364D-03      -267.26538169    555.809830    0.38225   -0.09207   -0.63388    4
    6      0.793D-03      0.110D-03      -267.26545855    555.796112    0.38045   -0.09187   -0.63665    5
    7      0.278D-03      0.513D-04      -267.26547887    555.793098    0.37970   -0.09161   -0.63616    6
    8      0.144D-03      0.274D-04      -267.26548498    555.791161    0.37995   -0.09172   -0.63638    7
    9      0.929D-04      0.115D-04      -267.26548591    555.791471    0.38013   -0.09168   -0.63614    8
   10      0.367D-04      0.503D-05      -267.26548606    555.792085    0.38039   -0.09169   -0.63620    9
   11      0.147D-04      0.197D-05      -267.26548609    555.791925    0.38044   -0.09169   -0.63621    9
   12      0.652D-05      0.672D-06      -267.26548609    555.792060    0.38046   -0.09169   -0.63620    9
   13      0.228D-05      0.227D-06      -267.26548609    555.791975    0.38047   -0.09169   -0.63620    9
   14      0.634D-06      0.763D-07      -267.26548609    555.791984    0.38047   -0.09169   -0.63620    9
   15      0.194D-06      0.304D-07      -267.26548609    555.791980    0.38047   -0.09169   -0.63620    9
   16      0.835D-07      0.148D-07      -267.26548609    555.791981    0.38047   -0.09169   -0.63620    9
   17      0.382D-07      0.764D-08      -267.26548609    555.791981    0.38047   -0.09169   -0.63620    9
   18      0.227D-07      0.345D-08      -267.26548609    555.791981    0.38047   -0.09169   -0.63620    9
   19      0.115D-07      0.134D-08      -267.26548609    555.791981    0.38047   -0.09169   -0.63620    9
   20      0.446D-08      0.576D-09      -267.26548609    555.791982    0.38047   -0.09169   -0.63620    9
   21      0.168D-08      0.291D-09      -267.26548609    555.791982    0.38047   -0.09169   -0.63620    9
   22      0.768D-09      0.164D-09      -267.26548609    555.791982    0.38047   -0.09169   -0.63620    9
   23      0.453D-09      0.807D-10      -267.26548609    555.791982    0.38047   -0.09169   -0.63620    9
   24      0.267D-09      0.322D-10      -267.26548609    555.791982    0.38047   -0.09169   -0.63620    9
   25      0.946D-10      0.131D-10      -267.26548609    555.791982    0.38047   -0.09169   -0.63620    0

 Final alpha occupancy:  21
 Final beta  occupancy:  20

 !RHF STATE 1.1 Energy               -267.265486093652
 Nuclear energy                       183.23977205
 One-electron energy                 -728.40124890
 Two-electron energy                  277.89599076
 Virial quotient                       -1.00153701
 !RHF STATE 1.1 Dipole moment           0.38046860    -0.09169023    -0.63619886
 Dipole moment /Debye                   0.96699140    -0.23303805    -1.61695029

 Orbital energies:

         1.1          2.1          3.1          4.1          5.1          6.1          7.1          8.1          9.1         10.1
    -20.630501   -20.628679   -11.279243   -11.237769   -11.232214    -1.470384    -1.241086    -1.023276    -0.945414    -0.768511

        11.1         12.1         13.1         14.1         15.1         16.1         17.1         18.1         19.1         20.1
     -0.704970    -0.643066    -0.626809    -0.588947    -0.545104    -0.543457    -0.539138    -0.517030    -0.493032    -0.469868

        21.1         22.1         23.1
     -0.352271     0.181439     0.183657


 **********************************************************************************************************************************
 DATASETS  * FILE   NREC   LENGTH (MB)   RECORD NAMES
              1      18        3.17       500      610      700      900      950      970     1000      129      960     1100   
                                          VAR    BASINP    GEOM    SYMINP    ZMAT    AOBASIS   BASIS     P2S    ABASIS      S 
                                         1400     1410     1200     1210     1080     1600     1650     1700   
                                           T        V       H0       H01     AOSYM     SMH    MOLCAS    OPER   

              2       3        0.77       700     1000     2100   
                                         GEOM     BASIS     RHF  

 PROGRAMS   *        TOTAL       RHF       INT
 CPU TIMES  *         2.05      1.10      0.91
 REAL TIME  *         2.60 SEC
 DISK USED  *       321.75 MB      
 SF USED    *         0.04 MB      
 GA USED    *         0.00 MB       (max)       0.00 MB       (current)
 **********************************************************************************************************************************


1PROGRAM * CCSD (Unrestricted open-shell coupled cluster)     Authors: C. Hampel, H.-J. Werner, 1991, M. Deegan, P.J. Knowles, 1992


 Convergence thresholds:  THRVAR = 1.00D-08  THRDEN = 1.00D-10

 CCSD(T)     terms to be evaluated (factor= 1.000)


 Number of core orbitals:           5 (   5 )
 Number of closed-shell orbitals:  15 (  15 )
 Number of active  orbitals:        1 (   1 )
 Number of external orbitals:      84 (  84 )

 Memory could be reduced to 24.91 Mwords without degradation in triples

 Number of N-1 electron functions:              31
 Number of N-2 electron functions:             465
 Number of singly external CSFs:              2635
 Number of doubly external CSFs:           2537250
 Total number of CSFs:                     2539885

 Molecular orbitals read from record     2100.2  Type=RHF/CANONICAL (state 1.1)

 Integral transformation finished. Total CPU:   1.24 sec, npass=  1  Memory used:  12.63 MW

 Starting RMP2 calculation

 ITER.      SQ.NORM     CORR.ENERGY   TOTAL ENERGY   ENERGY CHANGE        DEN1      VAR(S)    VAR(P)  DIIS     TIME
   1      1.24295779    -0.78628686  -268.05177296    -0.78628686    -0.00304845  0.20D-04  0.11D-02  1  1     1.67
   2      1.24559765    -0.78957437  -268.05506046    -0.00328751    -0.00000474  0.54D-06  0.19D-05  2  2     2.04
   3      1.24566317    -0.78961642  -268.05510251    -0.00004205    -0.00000003  0.16D-07  0.68D-08  3  3     2.44
   4      1.24566412    -0.78961642  -268.05510251    -0.00000000    -0.00000000  0.27D-09  0.38D-10  4  4     2.88
   5      1.24566420    -0.78961645  -268.05510254    -0.00000003    -0.00000000  0.25D-11  0.65D-12  5  5     3.33
   6      1.24566421    -0.78961646  -268.05510255    -0.00000001    -0.00000000  0.28D-13  0.86D-14  6  6     3.82
   7      1.24566421    -0.78961646  -268.05510255     0.00000000    -0.00000000  0.47D-15  0.12D-15  6  1     4.32
   8      1.24566421    -0.78961646  -268.05510255     0.00000000    -0.00000000  0.59D-17  0.13D-17  6  2     4.81

 Norm of t1 vector:      0.03893008      S-energy:    -0.00227150      T1 diagnostic:  0.00055013
 Norm of t2 vector:      0.49411402      P-energy:    -0.78734495
                                         Alpha-Beta:  -0.59334251
                                         Alpha-Alpha: -0.10093218
                                         Beta-Beta:   -0.09307027

 Spin contamination <S**2-Sz**2-Sz>     0.00104050
  Reference energy                   -267.265486093651
  RHF-RMP2 correlation energy          -0.789616456574
 !RHF-RMP2 energy                    -268.055102550225

 Starting UCCSD calculation

 ITER.      SQ.NORM     CORR.ENERGY   TOTAL ENERGY   ENERGY CHANGE        DEN1      VAR(S)    VAR(P)  DIIS     TIME
   1      1.26273442    -0.80897357  -268.07445967    -0.80897357    -0.02514657  0.37D-02  0.59D-02  1  1    12.43
   2      1.29149226    -0.83637282  -268.10185892    -0.02739925    -0.00200937  0.22D-03  0.66D-03  2  2    20.00
   3      1.30142376    -0.84086711  -268.10635320    -0.00449428    -0.00032436  0.19D-03  0.56D-04  3  3    27.60
   4      1.30633225    -0.84234292  -268.10782901    -0.00147581    -0.00007204  0.43D-04  0.14D-04  4  4    33.72
   5      1.30906042    -0.84273081  -268.10821690    -0.00038789    -0.00002366  0.19D-04  0.32D-05  5  5    39.20
   6      1.31099846    -0.84293518  -268.10842128    -0.00020437    -0.00000646  0.42D-05  0.12D-05  6  6    44.71
   7      1.31194731    -0.84299394  -268.10848003    -0.00005876    -0.00000208  0.14D-05  0.37D-06  6  2    50.21
   8      1.31238878    -0.84303661  -268.10852271    -0.00004267    -0.00000065  0.45D-06  0.11D-06  6  1    55.73
   9      1.31257398    -0.84304119  -268.10852729    -0.00000458    -0.00000022  0.15D-06  0.35D-07  6  4    61.26
  10      1.31263717    -0.84304412  -268.10853021    -0.00000292    -0.00000005  0.35D-07  0.95D-08  6  3    68.34
  11      1.31266673    -0.84304287  -268.10852896     0.00000125    -0.00000002  0.13D-07  0.28D-08  6  5    76.02
  12      1.31267713    -0.84304261  -268.10852870     0.00000026    -0.00000000  0.26D-08  0.95D-09  6  6    83.71
  13      1.31267599    -0.84304169  -268.10852779     0.00000091    -0.00000000  0.96D-09  0.28D-09  6  2    91.39
  14      1.31267078    -0.84304085  -268.10852694     0.00000084    -0.00000000  0.21D-09  0.67D-10  6  1    99.09
  15      1.31266671    -0.84304026  -268.10852636     0.00000059    -0.00000000  0.78D-10  0.19D-10  6  4   106.71
  16      1.31266352    -0.84303988  -268.10852597     0.00000038    -0.00000000  0.28D-10  0.63D-11  6  3   114.41
  17      1.31266132    -0.84303964  -268.10852574     0.00000024    -0.00000000  0.10D-10  0.24D-11  6  5   122.09
  18      1.31266042    -0.84303958  -268.10852568     0.00000006    -0.00000000  0.41D-11  0.87D-12  6  6   129.77
  19      1.31265981    -0.84303955  -268.10852564     0.00000003    -0.00000000  0.16D-11  0.37D-12  6  2   137.45
  20      1.31265949    -0.84303954  -268.10852563     0.00000001    -0.00000000  0.60D-12  0.13D-12  6  1   145.18
  21      1.31265933    -0.84303953  -268.10852562     0.00000001    -0.00000000  0.28D-12  0.58D-13  6  4   152.88
  22      1.31265921    -0.84303952  -268.10852561     0.00000001    -0.00000000  0.73D-13  0.21D-13  6  3   160.63
  23      1.31265915    -0.84303951  -268.10852561     0.00000000    -0.00000000  0.21D-13  0.62D-14  6  5   168.30
  24      1.31265914    -0.84303952  -268.10852561    -0.00000000    -0.00000000  0.67D-14  0.22D-14  6  6   175.97
  25      1.31265915    -0.84303952  -268.10852561    -0.00000000    -0.00000000  0.21D-14  0.52D-15  6  2   183.66
  26      1.31265915    -0.84303952  -268.10852561    -0.00000000    -0.00000000  0.77D-15  0.15D-15  6  1   191.35
  27      1.31265916    -0.84303952  -268.10852561    -0.00000000    -0.00000000  0.20D-15  0.62D-16  6  3   198.43
  28      1.31265917    -0.84303952  -268.10852561    -0.00000000    -0.00000000  0.30D-16  0.11D-16  6  4   203.94
  29      1.31265917    -0.84303952  -268.10852561    -0.00000000    -0.00000000  0.71D-17  0.29D-17  6  5   209.45
  30      1.31265917    -0.84303952  -268.10852561    -0.00000000    -0.00000000  0.15D-17  0.54D-18  6  6   214.98
  31      1.31265917    -0.84303952  -268.10852561    -0.00000000    -0.00000000  0.35D-18  0.10D-18  6  2   220.44

 Norm of t1 vector:      0.13866775      S-energy:    -0.00282111      T1 diagnostic:  0.01616242
                                                                       D1 diagnostic:  0.06280269
 Norm of t2 vector:      0.54169219      P-energy:    -0.84021840
                                         Alpha-Beta:  -0.66477749
                                         Alpha-Alpha: -0.09147234
                                         Beta-Beta:   -0.08396858

 Spin contamination <S**2-Sz**2-Sz>     0.00217194

 Memory could be reduced to 28.85 Mwords without degradation in triples
 

 RESULTS
 =======

  Reference energy                   -267.265486093651
  UCCSD singles energy                 -0.002821114996
  UCCSD pair energy                    -0.840218403611
  UCCSD correlation energy             -0.843039518607
  Triples (T) contribution             -0.024967751375
  Total correlation energy             -0.868007269982
 
  RHF-UCCSD energy                   -268.108525612257
  RHF-UCCSD[T] energy                -268.134828061764
  RHF-UCCSD-T energy                 -268.133072361436
 !RHF-UCCSD(T) energy                -268.133493363633

 Program statistics:

 Available memory in ccsd:               999997692
 Min. memory needed in ccsd:               7337057
 Max. memory used in ccsd:                10523002
 Max. memory used in cckext:              10867977 (31 integral passes)
 Max. memory used in cckint:              12633073 ( 1 integral passes)



 **********************************************************************************************************************************
 DATASETS  * FILE   NREC   LENGTH (MB)   RECORD NAMES
              1      18        3.17       500      610      700      900      950      970     1000      129      960     1100   
                                          VAR    BASINP    GEOM    SYMINP    ZMAT    AOBASIS   BASIS     P2S    ABASIS      S 
                                         1400     1410     1200     1210     1080     1600     1650     1700   
                                           T        V       H0       H01     AOSYM     SMH    MOLCAS    OPER   

              2       3        0.77       700     1000     2100   
                                         GEOM     BASIS     RHF  

 PROGRAMS   *        TOTAL  UCCSD(T)       RHF       INT
 CPU TIMES  *       268.54    266.49      1.10      0.91
 REAL TIME  *       281.96 SEC
 DISK USED  *         1.29 GB      
 SF USED    *       553.73 MB      
 GA USED    *         0.00 MB       (max)       0.00 MB       (current)
 **********************************************************************************************************************************

        UCCSD(T)        RHF-SCF 
   -268.13349336   -267.26548609
 **********************************************************************************************************************************
 Variable memory released
