
 Primary working directories    : /tmp/320938.369.gen6.q
 Secondary working directories  : /tmp/320938.369.gen6.q
 Wavefunction directory         : /home/vulcan/mel64643/wfu/
 Main file repository           : /tmp/320938.369.gen6.q/

 ARCHNAME  : Linux/x86_64
 FC        : /opt/intel/compilers_and_libraries_2016.1.150/linux/bin/intel64/ifort
 FCVERSION : 16.0.1
 BLASLIB   : -mkl
 id        : ccgc

 Nodes     nprocs
 n078         3
 Number of processes for MPI-2 version of Molpro:   nprocs(total)=    4   nprocs(compute)=    3   nprocs(helper)=    1
 ga_uses_ma=false, calling ma_init with nominal heap.
 GA-space will be limited to   8.0 MW (determined by -G option)

 Using customized tuning parameters: mindgm=10; mindgv=16; mindgc=4; mindgr=1; noblas=0; mincuda=1000; minvec=7
 default implementation of scratch files=sf  

 ***,Frequencies for min3
 memory,1000,m
 gthresh,energy=1.0d-10,orbital=1.0d-10,oneint=1.0d-16,twoint=1.0d-16,optgrad=1.0d-6,compress=1.0d-13
 geomtyp=xyz
 
  geometry = {
  12
  arbitrary comment
     C    1.776964391707    0.711398808326   -0.047331391796
     C    0.491811976407   -0.059992870174   -0.196493901896
     C    0.450332819107   -1.536294019674    0.101417522804
     O   -0.560767745493    0.727234937526    0.254892030773
     O   -1.837839505603    0.092276666785   -0.120815564472
     H    2.585339728263    0.211261574609   -0.612083954718
     H    1.660430910250    1.742751743253   -0.427550071217
     H    2.095218712702    0.774322315258    1.018076650498
     H   -0.505273881216   -1.982815901735   -0.219122977644
     H    1.281265798412   -2.048195557835   -0.417931110996
     H    0.562924579792   -1.717722868765    1.194265122946
     H   -1.988235412302    0.550365621196   -0.967919544709
  }
 
 basis=cc-pvdz
 {rhf;maxit,200}
 {uccsd(t);maxit,200}

 Variables initialized (661), CPU time= 0.00 sec
 Commands  initialized (458), CPU time= 0.01 sec, 486 directives.
 Default parameters read. Elapsed time= 0.07 sec

 Checking input...
 Passed
1


                                         ***  PROGRAM SYSTEM MOLPRO  ***
                         Copyright, University College Cardiff Consultants Limited, 2008

                                    Version 2010.1 linked May 16 2016 07:17:05


 **********************************************************************************************************************************
 LABEL *   Frequencies for min3                                                          
 Linux-4.4.3/n078(x86_64) 64 bit mpp version                                             DATE: 07-Mar-20          TIME: 03:07:35  
 **********************************************************************************************************************************

 SHA1:             9e8077add272b0f3cad6f7df79ec5211205f459d
 **********************************************************************************************************************************

 THRESHOLDS:

 ZERO    =  1.00D-12  ONEINT  =  1.00D-16  TWOINT  =  1.00D-16  PREFAC  =  1.00D-14  LOCALI  =  1.00D-09  EORDER  =  1.00D-04
 ENERGY  =  1.00D-10  ETEST   =  0.00D+00  EDENS   =  0.00D+00  THRDEDEF=  1.00D-06  GRADIENT=  1.00D-02  STEP    =  1.00D-03
 ORBITAL =  1.00D-10  CIVEC   =  1.00D-05  COEFF   =  1.00D-04  PRINTCI =  5.00D-02  PUNCHCI =  9.90D+01  OPTGRAD =  1.00D-06
 OPTENERG=  1.00D-06  OPTSTEP =  3.00D-04  THRGRAD =  1.00D-10  COMPRESS=  1.00D-13  VARMIN  =  1.00D-07  VARMAX  =  1.00D-03
 THRDOUB =  0.00D+00  THRDIV  =  1.00D-05  THRRED  =  1.00D-07  THRPSP  =  1.00D+00  THRDC   =  1.00D-10  THRCS   =  1.00D-10
 THRNRM  =  1.00D-08  THREQ   =  0.00D+00  THRDE   =  1.00D+00  THRREF  =  1.00D-05  SPARFAC =  1.00D+00  THRDLP  =  1.00D-07
 THRDIA  =  1.00D-10  THRDLS  =  1.00D-07  THRGPS  =  0.00D+00  THRKEX  =  0.00D+00  THRDIS  =  2.00D-01  THRVAR  =  1.00D-10
 THRLOC  =  1.00D-06  THRGAP  =  1.00D-06  THRLOCT = -1.00D+00  THRGAPT = -1.00D+00  THRORB  =  1.00D-06  THRMLTP =  0.00D+00
 THRCPQCI=  1.00D-10  KEXTA   =  0.00D+00  THRCOARS=  0.00D+00  SYMTOL  =  1.00D-06  GRADTOL =  1.00D-06  THROVL  =  1.00D-08
 THRORTH =  1.00D-08  GRID    =  1.00D-06  GRIDMAX =  1.00D-03  DTMAX   =  0.00D+00

 SETTING GEOMTYP        =    XYZ

 Variable memory set to 1000000000 words,  buffer space   230000 words

 SETTING BASIS          =    CC-PVDZ


 Recomputing integrals since basis changed


 Using spherical harmonics

 Library entry C      S cc-pVDZ              selected for orbital group  1
 Library entry C      P cc-pVDZ              selected for orbital group  1
 Library entry C      D cc-pVDZ              selected for orbital group  1
 Library entry O      S cc-pVDZ              selected for orbital group  2
 Library entry O      P cc-pVDZ              selected for orbital group  2
 Library entry O      D cc-pVDZ              selected for orbital group  2
 Library entry H      S cc-pVDZ              selected for orbital group  3
 Library entry H      P cc-pVDZ              selected for orbital group  3

1PROGRAM * SEWARD (Integral evaluation for generally contracted gaussian basis sets)     Author: Roland Lindh, 1990

 Geometry written to block  1 of record 700


 Point group  C1  



 ATOMIC COORDINATES

 NR  ATOM    CHARGE       X              Y              Z

   1  C       6.00    3.357976046    1.344348918   -0.089443368
   2  C       6.00    0.929389944   -0.113370094   -0.371319661
   3  C       6.00    0.851005696   -2.903174955    0.191651343
   4  O       8.00   -1.059697462    1.374274865    0.481676131
   5  O       8.00   -3.473013339    0.174377629   -0.228308329
   6  H       1.00    4.885584043    0.399226518   -1.156671044
   7  H       1.00    3.137759681    3.293323510   -0.807952542
   8  H       1.00    3.959389552    1.463257113    1.923886050
   9  H       1.00   -0.954829257   -3.746979023   -0.414082417
  10  H       1.00    2.421241461   -3.870528668   -0.789775342
  11  H       1.00    1.063773288   -3.246025792    2.256834011
  12  H       1.00   -3.757220414    1.040040296   -1.829102857

 Bond lengths in Bohr (Angstrom)

 1-2  2.846476668  1-6  2.089453866  1-7  2.088840023  1-8  2.104597993  2-3  2.847119878
     ( 1.506290578)     ( 1.105691365)     ( 1.105366533)     ( 1.113705292)     ( 1.506630951)

  2- 4  2.626244097   3- 9  2.083256722   3-10  2.089165360   3-11  2.104232923   4- 5  2.787099717
       ( 1.389748521)       ( 1.102411978)       ( 1.105538694)       ( 1.113512105)       ( 1.474869650)

  5-12  1.841925252
       ( 0.974704864)

 Bond angles

  1-2-3  120.37866573   1-2-4  108.90165229   2-1-6  109.97115168   2-1-7  110.72070012

  2- 1- 8  111.55998404   2- 3- 9  111.30043354   2- 3-10  109.88482414   2- 3-11  110.54445829

  2- 4- 5  109.22062127   3- 2- 4  118.03269214   4- 5-12   98.78127378   6- 1- 7  108.87033759

  6- 1- 8  107.77340765   7- 1- 8  107.84654148   9- 3-10  109.10984200   9- 3-11  107.87979642

 10- 3-11  108.03570796

 NUCLEAR CHARGE:                   41
 NUMBER OF PRIMITIVE AOS:         184
 NUMBER OF SYMMETRY AOS:          179
 NUMBER OF CONTRACTIONS:          105   ( 105A   )
 NUMBER OF CORE ORBITALS:           5   (   5A   )
 NUMBER OF VALENCE ORBITALS:       27   (  27A   )


 NUCLEAR REPULSION ENERGY  183.21222641


 Eigenvalues of metric

         1 0.345E-02 0.435E-02 0.105E-01 0.141E-01 0.182E-01 0.214E-01 0.331E-01 0.346E-01


 Contracted 2-electron integrals neglected if value below      1.0D-16
 AO integral compression algorithm  1   Integral accuracy      1.0D-16

     127.664 MB (compressed) written to integral file ( 93.2%)

     Node minimum: 34.341 MB, node maximum: 56.885 MB


 NUMBER OF SORTED TWO-ELECTRON INTEGRALS:    5164320.     BUFFER LENGTH:  32768
 NUMBER OF SEGMENTS:   1  SEGMENT LENGTH:    5164320      RECORD LENGTH: 524288

 Memory used in sort:       5.72 MW

 SORT1 READ    17075332. AND WROTE     5135895. INTEGRALS IN     15 RECORDS. CPU TIME:     0.29 SEC, REAL TIME:     0.34 SEC
 SORT2 READ    15396600. AND WROTE    15487395. INTEGRALS IN    393 RECORDS. CPU TIME:     0.09 SEC, REAL TIME:     0.13 SEC

 Node minimum:     5160610.  Node maximum:     5164320. integrals

 OPERATOR DM      FOR CENTER  0  COORDINATES:    0.000000    0.000000    0.000000


 **********************************************************************************************************************************
 DATASETS  * FILE   NREC   LENGTH (MB)   RECORD NAMES
              1      18        3.17       500      610      700      900      950      970     1000      129      960     1100   
                                          VAR    BASINP    GEOM    SYMINP    ZMAT    AOBASIS   BASIS     P2S    ABASIS      S 
                                         1400     1410     1200     1210     1080     1600     1650     1700   
                                           T        V       H0       H01     AOSYM     SMH    MOLCAS    OPER   

 PROGRAMS   *        TOTAL       INT
 CPU TIMES  *         1.13      1.05
 REAL TIME  *         1.54 SEC
 DISK USED  *       318.59 MB      
 GA USED    *         0.00 MB       (max)       0.00 MB       (current)
 **********************************************************************************************************************************

1PROGRAM * RHF-SCF (OPEN SHELL)       Authors: W. Meyer, H.-J. Werner


 NUMBER OF ELECTRONS:      21+   20-    SPACE SYMMETRY=1    SPIN SYMMETRY: Doublet 
 CONVERGENCE THRESHOLDS:    1.00E-10 (Density)    1.00E-11 (Energy)
 MAX. NUMBER OF ITERATIONS:      200
 INTERPOLATION TYPE:            DIIS
 INTERPOLATION STEPS:              2 (START)      1 (STEP)
 LEVEL SHIFTS:                 -0.30 (CLOSED)  0.00 (OPEN) 



 Orbital guess generated from atomic densities. Full valence occupancy:   32

 Molecular orbital dump at record        2100.2

 ITERATION    DDIFF          GRAD             ENERGY        2-EL.EN.            DIPOLE MOMENTS         DIIS
    1      0.000D+00      0.000D+00      -267.17818899    555.802534    0.57166    0.04867   -0.75066    0
    2      0.000D+00      0.617D-02      -267.24886928    555.721258    0.41444   -0.13162   -0.59947    1
    3      0.927D-02      0.214D-02      -267.26105302    555.640106    0.39411   -0.05973   -0.62677    2
    4      0.336D-02      0.912D-03      -267.26466431    555.791941    0.37936   -0.09985   -0.64307    3
    5      0.186D-02      0.363D-03      -267.26523405    555.763263    0.38187   -0.09335   -0.63600    4
    6      0.792D-03      0.110D-03      -267.26531063    555.749545    0.38012   -0.09316   -0.63874    5
    7      0.277D-03      0.512D-04      -267.26533081    555.746511    0.37941   -0.09290   -0.63823    6
    8      0.144D-03      0.273D-04      -267.26533689    555.744574    0.37968   -0.09302   -0.63844    7
    9      0.925D-04      0.115D-04      -267.26533781    555.744882    0.37986   -0.09298   -0.63820    8
   10      0.366D-04      0.502D-05      -267.26533796    555.745497    0.38012   -0.09299   -0.63826    9
   11      0.147D-04      0.197D-05      -267.26533799    555.745339    0.38018   -0.09298   -0.63827    9
   12      0.652D-05      0.672D-06      -267.26533799    555.745473    0.38020   -0.09298   -0.63826    9
   13      0.228D-05      0.227D-06      -267.26533799    555.745389    0.38020   -0.09298   -0.63826    9
   14      0.632D-06      0.758D-07      -267.26533799    555.745397    0.38020   -0.09299   -0.63826    9
   15      0.193D-06      0.300D-07      -267.26533799    555.745393    0.38020   -0.09299   -0.63826    9
   16      0.823D-07      0.145D-07      -267.26533799    555.745395    0.38020   -0.09299   -0.63826    9
   17      0.373D-07      0.748D-08      -267.26533799    555.745395    0.38020   -0.09299   -0.63826    9
   18      0.221D-07      0.341D-08      -267.26533799    555.745395    0.38020   -0.09299   -0.63826    9
   19      0.114D-07      0.133D-08      -267.26533799    555.745395    0.38020   -0.09299   -0.63826    9
   20      0.445D-08      0.567D-09      -267.26533799    555.745395    0.38020   -0.09299   -0.63826    9
   21      0.165D-08      0.286D-09      -267.26533799    555.745395    0.38020   -0.09299   -0.63826    9
   22      0.753D-09      0.162D-09      -267.26533799    555.745395    0.38020   -0.09299   -0.63826    9
   23      0.446D-09      0.796D-10      -267.26533799    555.745395    0.38020   -0.09299   -0.63826    9
   24      0.264D-09      0.317D-10      -267.26533799    555.745395    0.38020   -0.09299   -0.63826    9
   25      0.934D-10      0.129D-10      -267.26533799    555.745395    0.38020   -0.09299   -0.63826    0

 Final alpha occupancy:  21
 Final beta  occupancy:  20

 !RHF STATE 1.1 Energy               -267.265337993021
 Nuclear energy                       183.21222641
 One-electron energy                 -728.35026190
 Two-electron energy                  277.87269750
 Virial quotient                       -1.00156449
 !RHF STATE 1.1 Dipole moment           0.38019997    -0.09298655    -0.63826204
 Dipole moment /Debye                   0.96630864    -0.23633275    -1.62219404

 Orbital energies:

         1.1          2.1          3.1          4.1          5.1          6.1          7.1          8.1          9.1         10.1
    -20.630498   -20.628810   -11.279276   -11.238000   -11.232183    -1.470002    -1.240649    -1.023208    -0.945301    -0.768395

        11.1         12.1         13.1         14.1         15.1         16.1         17.1         18.1         19.1         20.1
     -0.704453    -0.642941    -0.626672    -0.588796    -0.545178    -0.543279    -0.539007    -0.516856    -0.492985    -0.469775

        21.1         22.1         23.1
     -0.352342     0.181234     0.183459


 **********************************************************************************************************************************
 DATASETS  * FILE   NREC   LENGTH (MB)   RECORD NAMES
              1      18        3.17       500      610      700      900      950      970     1000      129      960     1100   
                                          VAR    BASINP    GEOM    SYMINP    ZMAT    AOBASIS   BASIS     P2S    ABASIS      S 
                                         1400     1410     1200     1210     1080     1600     1650     1700   
                                           T        V       H0       H01     AOSYM     SMH    MOLCAS    OPER   

              2       3        0.77       700     1000     2100   
                                         GEOM     BASIS     RHF  

 PROGRAMS   *        TOTAL       RHF       INT
 CPU TIMES  *         2.46      1.34      1.05
 REAL TIME  *         3.05 SEC
 DISK USED  *       335.16 MB      
 SF USED    *         0.04 MB      
 GA USED    *         0.00 MB       (max)       0.00 MB       (current)
 **********************************************************************************************************************************


1PROGRAM * CCSD (Unrestricted open-shell coupled cluster)     Authors: C. Hampel, H.-J. Werner, 1991, M. Deegan, P.J. Knowles, 1992


 Convergence thresholds:  THRVAR = 1.00D-08  THRDEN = 1.00D-10

 CCSD(T)     terms to be evaluated (factor= 1.000)


 Number of core orbitals:           5 (   5 )
 Number of closed-shell orbitals:  15 (  15 )
 Number of active  orbitals:        1 (   1 )
 Number of external orbitals:      84 (  84 )

 Memory could be reduced to 24.91 Mwords without degradation in triples

 Number of N-1 electron functions:              31
 Number of N-2 electron functions:             465
 Number of singly external CSFs:              2635
 Number of doubly external CSFs:           2537250
 Total number of CSFs:                     2539885

 Molecular orbitals read from record     2100.2  Type=RHF/CANONICAL (state 1.1)

 Integral transformation finished. Total CPU:   0.91 sec, npass=  1  Memory used:  12.63 MW

 Starting RMP2 calculation

 ITER.      SQ.NORM     CORR.ENERGY   TOTAL ENERGY   ENERGY CHANGE        DEN1      VAR(S)    VAR(P)  DIIS     TIME
   1      1.24307419    -0.78641824  -268.05175624    -0.78641824    -0.00305072  0.20D-04  0.11D-02  1  1     1.24
   2      1.24571680    -0.78970826  -268.05504625    -0.00329002    -0.00000475  0.54D-06  0.19D-05  2  2     1.51
   3      1.24578239    -0.78975034  -268.05508833    -0.00004208    -0.00000003  0.16D-07  0.68D-08  3  3     1.81
   4      1.24578334    -0.78975034  -268.05508834    -0.00000000    -0.00000000  0.27D-09  0.38D-10  4  4     2.12
   5      1.24578342    -0.78975038  -268.05508837    -0.00000003    -0.00000000  0.25D-11  0.65D-12  5  5     2.46
   6      1.24578344    -0.78975038  -268.05508837    -0.00000001    -0.00000000  0.28D-13  0.87D-14  6  6     2.82
   7      1.24578344    -0.78975038  -268.05508837     0.00000000    -0.00000000  0.47D-15  0.12D-15  6  1     3.18
   8      1.24578344    -0.78975038  -268.05508837     0.00000000    -0.00000000  0.60D-17  0.13D-17  6  2     3.54

 Norm of t1 vector:      0.03892675      S-energy:    -0.00227103      T1 diagnostic:  0.00055021
 Norm of t2 vector:      0.49423491      P-energy:    -0.78747935
                                         Alpha-Beta:  -0.59345440
                                         Alpha-Alpha: -0.10094419
                                         Beta-Beta:   -0.09308076

 Spin contamination <S**2-Sz**2-Sz>     0.00104005
  Reference energy                   -267.265337993021
  RHF-RMP2 correlation energy          -0.789750381016
 !RHF-RMP2 energy                    -268.055088374037

 Starting UCCSD calculation

 ITER.      SQ.NORM     CORR.ENERGY   TOTAL ENERGY   ENERGY CHANGE        DEN1      VAR(S)    VAR(P)  DIIS     TIME
   1      1.26284906    -0.80908322  -268.07442121    -0.80908322    -0.02516322  0.38D-02  0.59D-02  1  1     9.78
   2      1.29163669    -0.83650007  -268.10183807    -0.02741685    -0.00201232  0.22D-03  0.66D-03  2  2    15.99
   3      1.30158467    -0.84100091  -268.10633891    -0.00450084    -0.00032480  0.19D-03  0.56D-04  3  3    22.22
   4      1.30650114    -0.84247897  -268.10781696    -0.00147806    -0.00007212  0.43D-04  0.14D-04  4  4    28.47
   5      1.30923221    -0.84286724  -268.10820524    -0.00038827    -0.00002369  0.19D-04  0.32D-05  5  5    34.79
   6      1.31117290    -0.84307185  -268.10840985    -0.00020461    -0.00000647  0.42D-05  0.12D-05  6  6    41.08
   7      1.31212345    -0.84313068  -268.10846867    -0.00005882    -0.00000208  0.14D-05  0.37D-06  6  2    47.38
   8      1.31256592    -0.84317342  -268.10851142    -0.00004275    -0.00000065  0.45D-06  0.11D-06  6  1    53.68
   9      1.31275146    -0.84317801  -268.10851601    -0.00000459    -0.00000022  0.15D-06  0.35D-07  6  4    59.98
  10      1.31281476    -0.84318095  -268.10851894    -0.00000294    -0.00000005  0.35D-07  0.95D-08  6  3    66.23
  11      1.31284431    -0.84317969  -268.10851768     0.00000126    -0.00000002  0.13D-07  0.28D-08  6  5    72.48
  12      1.31285472    -0.84317943  -268.10851742     0.00000026    -0.00000000  0.26D-08  0.96D-09  6  6    78.78
  13      1.31285359    -0.84317852  -268.10851651     0.00000092    -0.00000000  0.96D-09  0.29D-09  6  2    85.06
  14      1.31284838    -0.84317767  -268.10851567     0.00000084    -0.00000000  0.21D-09  0.68D-10  6  1    91.31
  15      1.31284431    -0.84317709  -268.10851508     0.00000059    -0.00000000  0.78D-10  0.19D-10  6  4    97.56
  16      1.31284112    -0.84317670  -268.10851469     0.00000038    -0.00000000  0.28D-10  0.63D-11  6  3   103.83
  17      1.31283891    -0.84317646  -268.10851446     0.00000024    -0.00000000  0.10D-10  0.24D-11  6  5   110.10
  18      1.31283800    -0.84317640  -268.10851440     0.00000006    -0.00000000  0.41D-11  0.87D-12  6  6   116.38
  19      1.31283739    -0.84317637  -268.10851436     0.00000003    -0.00000000  0.16D-11  0.37D-12  6  2   122.67
  20      1.31283707    -0.84317636  -268.10851435     0.00000001    -0.00000000  0.60D-12  0.13D-12  6  1   128.97
  21      1.31283691    -0.84317635  -268.10851434     0.00000001    -0.00000000  0.28D-12  0.58D-13  6  4   135.28
  22      1.31283679    -0.84317634  -268.10851433     0.00000001    -0.00000000  0.74D-13  0.22D-13  6  3   141.59
  23      1.31283673    -0.84317633  -268.10851433     0.00000000    -0.00000000  0.22D-13  0.63D-14  6  5   147.90
  24      1.31283672    -0.84317634  -268.10851433    -0.00000000    -0.00000000  0.68D-14  0.23D-14  6  6   154.20
  25      1.31283672    -0.84317634  -268.10851433    -0.00000000    -0.00000000  0.21D-14  0.53D-15  6  2   160.53
  26      1.31283673    -0.84317634  -268.10851433    -0.00000000    -0.00000000  0.78D-15  0.15D-15  6  1   166.82
  27      1.31283674    -0.84317634  -268.10851433    -0.00000000    -0.00000000  0.20D-15  0.63D-16  6  3   173.12
  28      1.31283675    -0.84317634  -268.10851433    -0.00000000    -0.00000000  0.30D-16  0.11D-16  6  4   179.43
  29      1.31283675    -0.84317634  -268.10851433    -0.00000000    -0.00000000  0.71D-17  0.30D-17  6  5   185.73
  30      1.31283675    -0.84317634  -268.10851433    -0.00000000    -0.00000000  0.15D-17  0.54D-18  6  6   192.04
  31      1.31283675    -0.84317634  -268.10851433    -0.00000000    -0.00000000  0.36D-18  0.11D-18  6  2   198.51

 Norm of t1 vector:      0.13874017      S-energy:    -0.00282063      T1 diagnostic:  0.01617231
                                                                       D1 diagnostic:  0.06281288
 Norm of t2 vector:      0.54183753      P-energy:    -0.84035571
                                         Alpha-Beta:  -0.66491414
                                         Alpha-Alpha: -0.09147361
                                         Beta-Beta:   -0.08396796

 Spin contamination <S**2-Sz**2-Sz>     0.00217296

 Memory could be reduced to 28.85 Mwords without degradation in triples
 

 RESULTS
 =======

  Reference energy                   -267.265337993021
  UCCSD singles energy                 -0.002820625628
  UCCSD pair energy                    -0.840355713140
  UCCSD correlation energy             -0.843176338768
  Triples (T) contribution             -0.024982498729
  Total correlation energy             -0.868158837497
 
  RHF-UCCSD energy                   -268.108514331789
  RHF-UCCSD[T] energy                -268.134833323896
  RHF-UCCSD-T energy                 -268.133075129562
 !RHF-UCCSD(T) energy                -268.133496830518

 Program statistics:

 Available memory in ccsd:               999997692
 Min. memory needed in ccsd:               7337057
 Max. memory used in ccsd:                10523002
 Max. memory used in cckext:              10867977 (31 integral passes)
 Max. memory used in cckint:              12633073 ( 1 integral passes)



 **********************************************************************************************************************************
 DATASETS  * FILE   NREC   LENGTH (MB)   RECORD NAMES
              1      18        3.17       500      610      700      900      950      970     1000      129      960     1100   
                                          VAR    BASINP    GEOM    SYMINP    ZMAT    AOBASIS   BASIS     P2S    ABASIS      S 
                                         1400     1410     1200     1210     1080     1600     1650     1700   
                                           T        V       H0       H01     AOSYM     SMH    MOLCAS    OPER   

              2       3        0.77       700     1000     2100   
                                         GEOM     BASIS     RHF  

 PROGRAMS   *        TOTAL  UCCSD(T)       RHF       INT
 CPU TIMES  *       245.95    243.49      1.34      1.05
 REAL TIME  *       255.78 SEC
 DISK USED  *         1.30 GB      
 SF USED    *       553.73 MB      
 GA USED    *         0.00 MB       (max)       0.00 MB       (current)
 **********************************************************************************************************************************

        UCCSD(T)        RHF-SCF 
   -268.13349683   -267.26533799
 **********************************************************************************************************************************
 Variable memory released
