
 Primary working directories    : /tmp/320938.406.gen6.q
 Secondary working directories  : /tmp/320938.406.gen6.q
 Wavefunction directory         : /home/vulcan/mel64643/wfu/
 Main file repository           : /tmp/320938.406.gen6.q/

 ARCHNAME  : Linux/x86_64
 FC        : /opt/intel/compilers_and_libraries_2016.1.150/linux/bin/intel64/ifort
 FCVERSION : 16.0.1
 BLASLIB   : -mkl
 id        : ccgc

 Nodes     nprocs
 n085         3
 Number of processes for MPI-2 version of Molpro:   nprocs(total)=    4   nprocs(compute)=    3   nprocs(helper)=    1
 ga_uses_ma=false, calling ma_init with nominal heap.
 GA-space will be limited to   8.0 MW (determined by -G option)

 Using customized tuning parameters: mindgm=10; mindgv=16; mindgc=4; mindgr=1; noblas=0; mincuda=1000; minvec=7
 default implementation of scratch files=sf  

 ***,Frequencies for min3
 memory,1000,m
 gthresh,energy=1.0d-10,orbital=1.0d-10,oneint=1.0d-16,twoint=1.0d-16,optgrad=1.0d-6,compress=1.0d-13
 geomtyp=xyz
 
  geometry = {
  12
  arbitrary comment
     C    1.776964391707    0.711398808326   -0.047331391796
     C    0.491811976407   -0.059992870174   -0.195858138425
     C    0.450334595838   -1.536294104051    0.101225781021
     O   -0.560740969492    0.727246358156    0.254257222591
     O   -1.837861720730    0.092262278029   -0.120533731557
     H    2.585291162371    0.211419103145   -0.611997805799
     H    1.660371490085    1.742854286297   -0.427062824643
     H    2.097240680361    0.774600543272    1.017778229250
     H   -0.505143809318   -1.983021208726   -0.220471718795
     H    1.281665611896   -2.046815692381   -0.417352484170
     H    0.561263416520   -1.719161440268    1.194496594035
     H   -1.989111655620    0.550139445612   -0.967340792247
  }
 
 basis=cc-pvdz
 {rhf;maxit,200}
 {uccsd(t);maxit,200}

 Variables initialized (661), CPU time= 0.00 sec
 Commands  initialized (458), CPU time= 0.01 sec, 486 directives.
 Default parameters read. Elapsed time= 0.06 sec

 Checking input...
 Passed
1


                                         ***  PROGRAM SYSTEM MOLPRO  ***
                         Copyright, University College Cardiff Consultants Limited, 2008

                                    Version 2010.1 linked May 16 2016 07:17:05


 **********************************************************************************************************************************
 LABEL *   Frequencies for min3                                                          
 Linux-4.4.3/n085(x86_64) 64 bit mpp version                                             DATE: 07-Mar-20          TIME: 03:21:35  
 **********************************************************************************************************************************

 SHA1:             9e8077add272b0f3cad6f7df79ec5211205f459d
 **********************************************************************************************************************************

 THRESHOLDS:

 ZERO    =  1.00D-12  ONEINT  =  1.00D-16  TWOINT  =  1.00D-16  PREFAC  =  1.00D-14  LOCALI  =  1.00D-09  EORDER  =  1.00D-04
 ENERGY  =  1.00D-10  ETEST   =  0.00D+00  EDENS   =  0.00D+00  THRDEDEF=  1.00D-06  GRADIENT=  1.00D-02  STEP    =  1.00D-03
 ORBITAL =  1.00D-10  CIVEC   =  1.00D-05  COEFF   =  1.00D-04  PRINTCI =  5.00D-02  PUNCHCI =  9.90D+01  OPTGRAD =  1.00D-06
 OPTENERG=  1.00D-06  OPTSTEP =  3.00D-04  THRGRAD =  1.00D-10  COMPRESS=  1.00D-13  VARMIN  =  1.00D-07  VARMAX  =  1.00D-03
 THRDOUB =  0.00D+00  THRDIV  =  1.00D-05  THRRED  =  1.00D-07  THRPSP  =  1.00D+00  THRDC   =  1.00D-10  THRCS   =  1.00D-10
 THRNRM  =  1.00D-08  THREQ   =  0.00D+00  THRDE   =  1.00D+00  THRREF  =  1.00D-05  SPARFAC =  1.00D+00  THRDLP  =  1.00D-07
 THRDIA  =  1.00D-10  THRDLS  =  1.00D-07  THRGPS  =  0.00D+00  THRKEX  =  0.00D+00  THRDIS  =  2.00D-01  THRVAR  =  1.00D-10
 THRLOC  =  1.00D-06  THRGAP  =  1.00D-06  THRLOCT = -1.00D+00  THRGAPT = -1.00D+00  THRORB  =  1.00D-06  THRMLTP =  0.00D+00
 THRCPQCI=  1.00D-10  KEXTA   =  0.00D+00  THRCOARS=  0.00D+00  SYMTOL  =  1.00D-06  GRADTOL =  1.00D-06  THROVL  =  1.00D-08
 THRORTH =  1.00D-08  GRID    =  1.00D-06  GRIDMAX =  1.00D-03  DTMAX   =  0.00D+00

 SETTING GEOMTYP        =    XYZ

 Variable memory set to 1000000000 words,  buffer space   230000 words

 SETTING BASIS          =    CC-PVDZ


 Recomputing integrals since basis changed


 Using spherical harmonics

 Library entry C      S cc-pVDZ              selected for orbital group  1
 Library entry C      P cc-pVDZ              selected for orbital group  1
 Library entry C      D cc-pVDZ              selected for orbital group  1
 Library entry O      S cc-pVDZ              selected for orbital group  2
 Library entry O      P cc-pVDZ              selected for orbital group  2
 Library entry O      D cc-pVDZ              selected for orbital group  2
 Library entry H      S cc-pVDZ              selected for orbital group  3
 Library entry H      P cc-pVDZ              selected for orbital group  3

1PROGRAM * SEWARD (Integral evaluation for generally contracted gaussian basis sets)     Author: Roland Lindh, 1990

 Geometry written to block  1 of record 700


 Point group  C1  



 ATOMIC COORDINATES

 NR  ATOM    CHARGE       X              Y              Z

   1  C       6.00    3.357976046    1.344348918   -0.089443368
   2  C       6.00    0.929389944   -0.113370094   -0.370118242
   3  C       6.00    0.851009054   -2.903175114    0.191289004
   4  O       8.00   -1.059646863    1.374296447    0.480476518
   5  O       8.00   -3.473055320    0.174350438   -0.227775742
   6  H       1.00    4.885492267    0.399524204   -1.156508246
   7  H       1.00    3.137647393    3.293517288   -0.807031779
   8  H       1.00    3.963210518    1.463782888    1.923322116
   9  H       1.00   -0.954583457   -3.747366997   -0.416631168
  10  H       1.00    2.421996999   -3.867921100   -0.788681895
  11  H       1.00    1.060634145   -3.248744298    2.257271428
  12  H       1.00   -3.758876274    1.039612886   -1.828009173

 Bond lengths in Bohr (Angstrom)

 1-2  2.846357946  1-6  2.089168974  1-7  2.088716156  1-8  2.105183634  2-3  2.846811147
     ( 1.506227754)     ( 1.105540607)     ( 1.105300986)     ( 1.114015200)     ( 1.506467577)

  2- 4  2.625439126   3- 9  2.083840489   3-10  2.087841206   3-11  2.105147053   4- 5  2.786760138
       ( 1.389322549)       ( 1.102720894)       ( 1.104837982)       ( 1.113995842)       ( 1.474689952)

  5-12  1.841499323
       ( 0.974479472)

 Bond angles

  1-2-3  120.39278627   1-2-4  108.92100283   2-1-6  109.99063743   2-1-7  110.73454822

  2- 1- 8  111.63143658   2- 3- 9  111.30464957   2- 3-10  109.84920573   2- 3-11  110.58903094

  2- 4- 5  109.25523944   3- 2- 4  118.06926981   4- 5-12   98.79783228   6- 1- 7  108.88601628

  6- 1- 8  107.68532765   7- 1- 8  107.80969559   9- 3-10  109.13837389   9- 3-11  107.82334725

 10- 3-11  108.05075323

 NUCLEAR CHARGE:                   41
 NUMBER OF PRIMITIVE AOS:         184
 NUMBER OF SYMMETRY AOS:          179
 NUMBER OF CONTRACTIONS:          105   ( 105A   )
 NUMBER OF CORE ORBITALS:           5   (   5A   )
 NUMBER OF VALENCE ORBITALS:       27   (  27A   )


 NUCLEAR REPULSION ENERGY  183.22046371


 Eigenvalues of metric

         1 0.345E-02 0.435E-02 0.105E-01 0.141E-01 0.182E-01 0.214E-01 0.331E-01 0.346E-01


 Contracted 2-electron integrals neglected if value below      1.0D-16
 AO integral compression algorithm  1   Integral accuracy      1.0D-16

     127.402 MB (compressed) written to integral file ( 93.4%)

     Node minimum: 40.632 MB, node maximum: 43.778 MB


 NUMBER OF SORTED TWO-ELECTRON INTEGRALS:    5164320.     BUFFER LENGTH:  32768
 NUMBER OF SEGMENTS:   1  SEGMENT LENGTH:    5164320      RECORD LENGTH: 524288

 Memory used in sort:       5.72 MW

 SORT1 READ    17075251. AND WROTE     5135862. INTEGRALS IN     15 RECORDS. CPU TIME:     0.19 SEC, REAL TIME:     0.23 SEC
 SORT2 READ    15396496. AND WROTE    15487395. INTEGRALS IN    501 RECORDS. CPU TIME:     0.05 SEC, REAL TIME:     0.09 SEC

 Node minimum:     5160610.  Node maximum:     5164320. integrals

 OPERATOR DM      FOR CENTER  0  COORDINATES:    0.000000    0.000000    0.000000


 **********************************************************************************************************************************
 DATASETS  * FILE   NREC   LENGTH (MB)   RECORD NAMES
              1      18        3.17       500      610      700      900      950      970     1000      129      960     1100   
                                          VAR    BASINP    GEOM    SYMINP    ZMAT    AOBASIS   BASIS     P2S    ABASIS      S 
                                         1400     1410     1200     1210     1080     1600     1650     1700   
                                           T        V       H0       H01     AOSYM     SMH    MOLCAS    OPER   

 PROGRAMS   *        TOTAL       INT
 CPU TIMES  *         0.81      0.75
 REAL TIME  *         1.24 SEC
 DISK USED  *       305.70 MB      
 GA USED    *         0.00 MB       (max)       0.00 MB       (current)
 **********************************************************************************************************************************

1PROGRAM * RHF-SCF (OPEN SHELL)       Authors: W. Meyer, H.-J. Werner


 NUMBER OF ELECTRONS:      21+   20-    SPACE SYMMETRY=1    SPIN SYMMETRY: Doublet 
 CONVERGENCE THRESHOLDS:    1.00E-10 (Density)    1.00E-11 (Energy)
 MAX. NUMBER OF ITERATIONS:      200
 INTERPOLATION TYPE:            DIIS
 INTERPOLATION STEPS:              2 (START)      1 (STEP)
 LEVEL SHIFTS:                 -0.30 (CLOSED)  0.00 (OPEN) 



 Orbital guess generated from atomic densities. Full valence occupancy:   32

 Molecular orbital dump at record        2100.2

 ITERATION    DDIFF          GRAD             ENERGY        2-EL.EN.            DIPOLE MOMENTS         DIIS
    1      0.000D+00      0.000D+00      -267.17823357    555.817092    0.56966    0.04890   -0.74993    0
    2      0.000D+00      0.617D-02      -267.24889412    555.735830    0.41322   -0.13144   -0.59927    1
    3      0.927D-02      0.214D-02      -267.26107538    555.654233    0.39287   -0.05955   -0.62654    2
    4      0.336D-02      0.912D-03      -267.26468807    555.806411    0.37824   -0.09972   -0.64292    3
    5      0.186D-02      0.364D-03      -267.26525888    555.777775    0.38077   -0.09326   -0.63591    4
    6      0.793D-03      0.110D-03      -267.26533572    555.764046    0.37903   -0.09307   -0.63865    5
    7      0.278D-03      0.512D-04      -267.26535597    555.761041    0.37831   -0.09281   -0.63815    6
    8      0.144D-03      0.273D-04      -267.26536205    555.759095    0.37858   -0.09293   -0.63837    7
    9      0.926D-04      0.115D-04      -267.26536297    555.759415    0.37877   -0.09288   -0.63812    8
   10      0.366D-04      0.502D-05      -267.26536313    555.760025    0.37902   -0.09289   -0.63819    9
   11      0.147D-04      0.197D-05      -267.26536315    555.759866    0.37907   -0.09289   -0.63820    9
   12      0.652D-05      0.672D-06      -267.26536316    555.760000    0.37909   -0.09289   -0.63819    9
   13      0.228D-05      0.227D-06      -267.26536316    555.759916    0.37910   -0.09289   -0.63819    9
   14      0.633D-06      0.760D-07      -267.26536316    555.759925    0.37910   -0.09289   -0.63819    9
   15      0.193D-06      0.302D-07      -267.26536316    555.759920    0.37910   -0.09289   -0.63819    9
   16      0.830D-07      0.146D-07      -267.26536316    555.759922    0.37910   -0.09289   -0.63819    9
   17      0.377D-07      0.755D-08      -267.26536316    555.759922    0.37910   -0.09289   -0.63819    9
   18      0.224D-07      0.343D-08      -267.26536316    555.759922    0.37910   -0.09289   -0.63819    9
   19      0.115D-07      0.134D-08      -267.26536316    555.759922    0.37910   -0.09289   -0.63819    9
   20      0.445D-08      0.570D-09      -267.26536316    555.759922    0.37910   -0.09289   -0.63819    9
   21      0.167D-08      0.288D-09      -267.26536316    555.759922    0.37910   -0.09289   -0.63819    9
   22      0.759D-09      0.162D-09      -267.26536316    555.759922    0.37910   -0.09289   -0.63819    9
   23      0.448D-09      0.800D-10      -267.26536316    555.759922    0.37910   -0.09289   -0.63819    9
   24      0.265D-09      0.319D-10      -267.26536316    555.759922    0.37910   -0.09289   -0.63819    9
   25      0.938D-10      0.130D-10      -267.26536316    555.759922    0.37910   -0.09289   -0.63819    0

 Final alpha occupancy:  21
 Final beta  occupancy:  20

 !RHF STATE 1.1 Energy               -267.265363156440
 Nuclear energy                       183.22046371
 One-electron energy                 -728.36578797
 Two-electron energy                  277.87996111
 Virial quotient                       -1.00155963
 !RHF STATE 1.1 Dipole moment           0.37909952    -0.09289290    -0.63818855
 Dipole moment /Debye                   0.96351177    -0.23609474    -1.62200726

 Orbital energies:

         1.1          2.1          3.1          4.1          5.1          6.1          7.1          8.1          9.1         10.1
    -20.630508   -20.628822   -11.279206   -11.237989   -11.232175    -1.470170    -1.240798    -1.023196    -0.945293    -0.768504

        11.1         12.1         13.1         14.1         15.1         16.1         17.1         18.1         19.1         20.1
     -0.704578    -0.643030    -0.626751    -0.588766    -0.545076    -0.543390    -0.538862    -0.516921    -0.493043    -0.469813

        21.1         22.1         23.1
     -0.352085     0.181241     0.183479


 **********************************************************************************************************************************
 DATASETS  * FILE   NREC   LENGTH (MB)   RECORD NAMES
              1      18        3.17       500      610      700      900      950      970     1000      129      960     1100   
                                          VAR    BASINP    GEOM    SYMINP    ZMAT    AOBASIS   BASIS     P2S    ABASIS      S 
                                         1400     1410     1200     1210     1080     1600     1650     1700   
                                           T        V       H0       H01     AOSYM     SMH    MOLCAS    OPER   

              2       3        0.77       700     1000     2100   
                                         GEOM     BASIS     RHF  

 PROGRAMS   *        TOTAL       RHF       INT
 CPU TIMES  *         1.74      0.93      0.75
 REAL TIME  *         2.30 SEC
 DISK USED  *       322.27 MB      
 SF USED    *         0.04 MB      
 GA USED    *         0.00 MB       (max)       0.00 MB       (current)
 **********************************************************************************************************************************


1PROGRAM * CCSD (Unrestricted open-shell coupled cluster)     Authors: C. Hampel, H.-J. Werner, 1991, M. Deegan, P.J. Knowles, 1992


 Convergence thresholds:  THRVAR = 1.00D-08  THRDEN = 1.00D-10

 CCSD(T)     terms to be evaluated (factor= 1.000)


 Number of core orbitals:           5 (   5 )
 Number of closed-shell orbitals:  15 (  15 )
 Number of active  orbitals:        1 (   1 )
 Number of external orbitals:      84 (  84 )

 Memory could be reduced to 24.91 Mwords without degradation in triples

 Number of N-1 electron functions:              31
 Number of N-2 electron functions:             465
 Number of singly external CSFs:              2635
 Number of doubly external CSFs:           2537250
 Total number of CSFs:                     2539885

 Molecular orbitals read from record     2100.2  Type=RHF/CANONICAL (state 1.1)

 Integral transformation finished. Total CPU:   0.80 sec, npass=  1  Memory used:  12.63 MW

 Starting RMP2 calculation

 ITER.      SQ.NORM     CORR.ENERGY   TOTAL ENERGY   ENERGY CHANGE        DEN1      VAR(S)    VAR(P)  DIIS     TIME
   1      1.24304734    -0.78639664  -268.05175979    -0.78639664    -0.00304995  0.20D-04  0.11D-02  1  1     1.06
   2      1.24568911    -0.78968581  -268.05504897    -0.00328917    -0.00000475  0.54D-06  0.19D-05  2  2     1.30
   3      1.24575469    -0.78972789  -268.05509105    -0.00004208    -0.00000003  0.16D-07  0.68D-08  3  3     1.55
   4      1.24575565    -0.78972789  -268.05509105    -0.00000000    -0.00000000  0.27D-09  0.38D-10  4  4     1.83
   5      1.24575573    -0.78972793  -268.05509108    -0.00000003    -0.00000000  0.25D-11  0.65D-12  5  5     2.14
   6      1.24575574    -0.78972793  -268.05509109    -0.00000001    -0.00000000  0.28D-13  0.87D-14  6  6     2.47
   7      1.24575574    -0.78972793  -268.05509109     0.00000000    -0.00000000  0.47D-15  0.12D-15  6  1     2.79
   8      1.24575574    -0.78972793  -268.05509109     0.00000000    -0.00000000  0.60D-17  0.13D-17  6  2     3.12

 Norm of t1 vector:      0.03895474      S-energy:    -0.00227392      T1 diagnostic:  0.00055040
 Norm of t2 vector:      0.49420469      P-energy:    -0.78745401
                                         Alpha-Beta:  -0.59343080
                                         Alpha-Alpha: -0.10094274
                                         Beta-Beta:   -0.09308047

 Spin contamination <S**2-Sz**2-Sz>     0.00104106
  Reference energy                   -267.265363156439
  RHF-RMP2 correlation energy          -0.789727930655
 !RHF-RMP2 energy                    -268.055091087093

 Starting UCCSD calculation

 ITER.      SQ.NORM     CORR.ENERGY   TOTAL ENERGY   ENERGY CHANGE        DEN1      VAR(S)    VAR(P)  DIIS     TIME
   1      1.26282608    -0.80906928  -268.07443244    -0.80906928    -0.02515803  0.38D-02  0.59D-02  1  1     7.86
   2      1.29160770    -0.83648143  -268.10184459    -0.02741215    -0.00201153  0.22D-03  0.66D-03  2  2    12.59
   3      1.30155347    -0.84098100  -268.10634415    -0.00449957    -0.00032473  0.19D-03  0.56D-04  3  3    17.34
   4      1.30646939    -0.84245865  -268.10782181    -0.00147766    -0.00007212  0.43D-04  0.14D-04  4  4    22.10
   5      1.30920123    -0.84284701  -268.10821016    -0.00038835    -0.00002369  0.19D-04  0.32D-05  5  5    26.89
   6      1.31114189    -0.84305158  -268.10841474    -0.00020457    -0.00000647  0.42D-05  0.12D-05  6  6    31.70
   7      1.31209247    -0.84311043  -268.10847359    -0.00005885    -0.00000209  0.14D-05  0.37D-06  6  2    36.52
   8      1.31253522    -0.84315317  -268.10851633    -0.00004274    -0.00000066  0.45D-06  0.11D-06  6  1    42.86
   9      1.31272146    -0.84315780  -268.10852095    -0.00000462    -0.00000022  0.15D-06  0.35D-07  6  4    48.99
  10      1.31278510    -0.84316074  -268.10852390    -0.00000295    -0.00000005  0.35D-07  0.96D-08  6  3    53.80
  11      1.31281477    -0.84315949  -268.10852265     0.00000125    -0.00000002  0.13D-07  0.28D-08  6  5    58.61
  12      1.31282521    -0.84315923  -268.10852238     0.00000026    -0.00000000  0.26D-08  0.96D-09  6  6    63.45
  13      1.31282407    -0.84315831  -268.10852147     0.00000092    -0.00000000  0.97D-09  0.29D-09  6  2    68.29
  14      1.31281885    -0.84315746  -268.10852062     0.00000085    -0.00000000  0.21D-09  0.68D-10  6  1    73.12
  15      1.31281476    -0.84315687  -268.10852003     0.00000059    -0.00000000  0.78D-10  0.19D-10  6  4    78.36
  16      1.31281157    -0.84315649  -268.10851965     0.00000038    -0.00000000  0.28D-10  0.63D-11  6  3    84.82
  17      1.31280937    -0.84315625  -268.10851941     0.00000024    -0.00000000  0.10D-10  0.24D-11  6  5    91.31
  18      1.31280846    -0.84315619  -268.10851935     0.00000006    -0.00000000  0.41D-11  0.88D-12  6  6    97.81
  19      1.31280785    -0.84315616  -268.10851931     0.00000003    -0.00000000  0.16D-11  0.37D-12  6  2   104.21
  20      1.31280752    -0.84315614  -268.10851930     0.00000001    -0.00000000  0.60D-12  0.13D-12  6  1   110.58
  21      1.31280736    -0.84315613  -268.10851929     0.00000001    -0.00000000  0.28D-12  0.58D-13  6  4   117.06
  22      1.31280724    -0.84315613  -268.10851928     0.00000001    -0.00000000  0.74D-13  0.22D-13  6  3   122.96
  23      1.31280718    -0.84315612  -268.10851928     0.00000000    -0.00000000  0.22D-13  0.63D-14  6  5   128.71
  24      1.31280717    -0.84315612  -268.10851928    -0.00000000    -0.00000000  0.68D-14  0.23D-14  6  6   134.45
  25      1.31280718    -0.84315613  -268.10851928    -0.00000000    -0.00000000  0.21D-14  0.53D-15  6  2   140.20
  26      1.31280718    -0.84315613  -268.10851928    -0.00000000    -0.00000000  0.77D-15  0.15D-15  6  1   145.87
  27      1.31280719    -0.84315613  -268.10851928    -0.00000000    -0.00000000  0.20D-15  0.63D-16  6  3   151.62
  28      1.31280720    -0.84315613  -268.10851928    -0.00000000    -0.00000000  0.30D-16  0.11D-16  6  4   157.37
  29      1.31280720    -0.84315613  -268.10851928    -0.00000000    -0.00000000  0.71D-17  0.29D-17  6  5   163.13
  30      1.31280720    -0.84315613  -268.10851928    -0.00000000    -0.00000000  0.15D-17  0.54D-18  6  6   168.89
  31      1.31280720    -0.84315613  -268.10851928    -0.00000000    -0.00000000  0.36D-18  0.11D-18  6  2   174.09

 Norm of t1 vector:      0.13875688      S-energy:    -0.00282413      T1 diagnostic:  0.01617259
                                                                       D1 diagnostic:  0.06281276
 Norm of t2 vector:      0.54180599      P-energy:    -0.84033200
                                         Alpha-Beta:  -0.66488665
                                         Alpha-Alpha: -0.09147424
                                         Beta-Beta:   -0.08397110

 Spin contamination <S**2-Sz**2-Sz>     0.00217580

 Memory could be reduced to 28.85 Mwords without degradation in triples
 

 RESULTS
 =======

  Reference energy                   -267.265363156439
  UCCSD singles energy                 -0.002824130046
  UCCSD pair energy                    -0.840331996998
  UCCSD correlation energy             -0.843156127043
  Triples (T) contribution             -0.024977570436
  Total correlation energy             -0.868133697479
 
  RHF-UCCSD energy                   -268.108519283482
  RHF-UCCSD[T] energy                -268.134832587176
  RHF-UCCSD-T energy                 -268.133075515180
 !RHF-UCCSD(T) energy                -268.133496853918

 Program statistics:

 Available memory in ccsd:               999997692
 Min. memory needed in ccsd:               7337057
 Max. memory used in ccsd:                10523002
 Max. memory used in cckext:              10867977 (31 integral passes)
 Max. memory used in cckint:              12633073 ( 1 integral passes)



 **********************************************************************************************************************************
 DATASETS  * FILE   NREC   LENGTH (MB)   RECORD NAMES
              1      18        3.17       500      610      700      900      950      970     1000      129      960     1100   
                                          VAR    BASINP    GEOM    SYMINP    ZMAT    AOBASIS   BASIS     P2S    ABASIS      S 
                                         1400     1410     1200     1210     1080     1600     1650     1700   
                                           T        V       H0       H01     AOSYM     SMH    MOLCAS    OPER   

              2       3        0.77       700     1000     2100   
                                         GEOM     BASIS     RHF  

 PROGRAMS   *        TOTAL  UCCSD(T)       RHF       INT
 CPU TIMES  *       212.93    211.19      0.93      0.75
 REAL TIME  *       221.94 SEC
 DISK USED  *         1.29 GB      
 SF USED    *       553.73 MB      
 GA USED    *         0.00 MB       (max)       0.00 MB       (current)
 **********************************************************************************************************************************

        UCCSD(T)        RHF-SCF 
   -268.13349685   -267.26536316
 **********************************************************************************************************************************
 Variable memory released
