
 Primary working directories    : /tmp/320938.346.gen6.q
 Secondary working directories  : /tmp/320938.346.gen6.q
 Wavefunction directory         : /home/vulcan/mel64643/wfu/
 Main file repository           : /tmp/320938.346.gen6.q/

 ARCHNAME  : Linux/x86_64
 FC        : /opt/intel/compilers_and_libraries_2016.1.150/linux/bin/intel64/ifort
 FCVERSION : 16.0.1
 BLASLIB   : -mkl
 id        : ccgc

 Nodes     nprocs
 n090         3
 Number of processes for MPI-2 version of Molpro:   nprocs(total)=    4   nprocs(compute)=    3   nprocs(helper)=    1
 ga_uses_ma=false, calling ma_init with nominal heap.
 GA-space will be limited to   8.0 MW (determined by -G option)

 Using customized tuning parameters: mindgm=10; mindgv=16; mindgc=4; mindgr=1; noblas=0; mincuda=1000; minvec=7
 default implementation of scratch files=sf  

 ***,Frequencies for min3
 memory,1000,m
 gthresh,energy=1.0d-10,orbital=1.0d-10,oneint=1.0d-16,twoint=1.0d-16,optgrad=1.0d-6,compress=1.0d-13
 geomtyp=xyz
 
  geometry = {
  12
  arbitrary comment
     C    1.776964391707    0.711398808326   -0.047331391796
     C    0.491127713802   -0.059995802020   -0.196470577790
     C    0.450484516123   -1.536299389253    0.101426451761
     O   -0.560607193866    0.727234013428    0.254455642666
     O   -1.837673208175    0.092278834057   -0.120570664491
     H    2.585554270460    0.211454658684   -0.611358001104
     H    1.660611371914    1.742880395075   -0.426460963434
     H    2.095263484048    0.774025027854    1.017724965986
     H   -0.504713485025   -1.982773170375   -0.220105113976
     H    1.282056742191   -2.047210235423   -0.417131153986
     H    0.560729167065   -1.718137976556    1.193757359767
     H   -1.986677279194    0.549807340279   -0.966037955270
  }
 
 basis=cc-pvdz
 {rhf;maxit,200}
 {uccsd(t);maxit,200}

 Variables initialized (661), CPU time= 0.00 sec
 Commands  initialized (458), CPU time= 0.01 sec, 486 directives.
 Default parameters read. Elapsed time= 0.06 sec

 Checking input...
 Passed
1


                                         ***  PROGRAM SYSTEM MOLPRO  ***
                         Copyright, University College Cardiff Consultants Limited, 2008

                                    Version 2010.1 linked May 16 2016 07:17:05


 **********************************************************************************************************************************
 LABEL *   Frequencies for min3                                                          
 Linux-4.4.3/n090(x86_64) 64 bit mpp version                                             DATE: 07-Mar-20          TIME: 02:59:35  
 **********************************************************************************************************************************

 SHA1:             9e8077add272b0f3cad6f7df79ec5211205f459d
 **********************************************************************************************************************************

 THRESHOLDS:

 ZERO    =  1.00D-12  ONEINT  =  1.00D-16  TWOINT  =  1.00D-16  PREFAC  =  1.00D-14  LOCALI  =  1.00D-09  EORDER  =  1.00D-04
 ENERGY  =  1.00D-10  ETEST   =  0.00D+00  EDENS   =  0.00D+00  THRDEDEF=  1.00D-06  GRADIENT=  1.00D-02  STEP    =  1.00D-03
 ORBITAL =  1.00D-10  CIVEC   =  1.00D-05  COEFF   =  1.00D-04  PRINTCI =  5.00D-02  PUNCHCI =  9.90D+01  OPTGRAD =  1.00D-06
 OPTENERG=  1.00D-06  OPTSTEP =  3.00D-04  THRGRAD =  1.00D-10  COMPRESS=  1.00D-13  VARMIN  =  1.00D-07  VARMAX  =  1.00D-03
 THRDOUB =  0.00D+00  THRDIV  =  1.00D-05  THRRED  =  1.00D-07  THRPSP  =  1.00D+00  THRDC   =  1.00D-10  THRCS   =  1.00D-10
 THRNRM  =  1.00D-08  THREQ   =  0.00D+00  THRDE   =  1.00D+00  THRREF  =  1.00D-05  SPARFAC =  1.00D+00  THRDLP  =  1.00D-07
 THRDIA  =  1.00D-10  THRDLS  =  1.00D-07  THRGPS  =  0.00D+00  THRKEX  =  0.00D+00  THRDIS  =  2.00D-01  THRVAR  =  1.00D-10
 THRLOC  =  1.00D-06  THRGAP  =  1.00D-06  THRLOCT = -1.00D+00  THRGAPT = -1.00D+00  THRORB  =  1.00D-06  THRMLTP =  0.00D+00
 THRCPQCI=  1.00D-10  KEXTA   =  0.00D+00  THRCOARS=  0.00D+00  SYMTOL  =  1.00D-06  GRADTOL =  1.00D-06  THROVL  =  1.00D-08
 THRORTH =  1.00D-08  GRID    =  1.00D-06  GRIDMAX =  1.00D-03  DTMAX   =  0.00D+00

 SETTING GEOMTYP        =    XYZ

 Variable memory set to 1000000000 words,  buffer space   230000 words

 SETTING BASIS          =    CC-PVDZ


 Recomputing integrals since basis changed


 Using spherical harmonics

 Library entry C      S cc-pVDZ              selected for orbital group  1
 Library entry C      P cc-pVDZ              selected for orbital group  1
 Library entry C      D cc-pVDZ              selected for orbital group  1
 Library entry O      S cc-pVDZ              selected for orbital group  2
 Library entry O      P cc-pVDZ              selected for orbital group  2
 Library entry O      D cc-pVDZ              selected for orbital group  2
 Library entry H      S cc-pVDZ              selected for orbital group  3
 Library entry H      P cc-pVDZ              selected for orbital group  3

1PROGRAM * SEWARD (Integral evaluation for generally contracted gaussian basis sets)     Author: Roland Lindh, 1990

 Geometry written to block  1 of record 700


 Point group  C1  



 ATOMIC COORDINATES

 NR  ATOM    CHARGE       X              Y              Z

   1  C       6.00    3.357976046    1.344348918   -0.089443368
   2  C       6.00    0.928096875   -0.113375635   -0.371275585
   3  C       6.00    0.851292362   -2.903185102    0.191668216
   4  O       8.00   -1.059394064    1.374273119    0.480851477
   5  O       8.00   -3.472699083    0.174381724   -0.227845535
   6  H       1.00    4.885989469    0.399591394   -1.155299190
   7  H       1.00    3.138100704    3.293566627   -0.805894427
   8  H       1.00    3.959474158    1.462695322    1.923221463
   9  H       1.00   -0.953770262   -3.746898273   -0.415938386
  10  H       1.00    2.422736128   -3.868666678   -0.788263642
  11  H       1.00    1.059624560   -3.246810232    2.255874477
  12  H       1.00   -3.754275969    1.038985298   -1.825547168

 Bond lengths in Bohr (Angstrom)

 1-2  2.847578455  1-6  2.088884974  1-7  2.088323960  1-8  2.103954746  2-3  2.847075959
     ( 1.506873619)     ( 1.105390321)     ( 1.105093445)     ( 1.113364900)     ( 1.506607710)

  2- 4  2.624755146   3- 9  2.083095959   3-10  2.088505837   3-11  2.102956971   4- 5  2.786760113
       ( 1.388960602)       ( 1.102326905)       ( 1.105189690)       ( 1.112836901)       ( 1.474689939)

  5-12  1.838334951
       ( 0.972804958)

 Bond angles

  1-2-3  120.33603029   1-2-4  108.89677131   2-1-6  110.00895091   2-1-7  110.73333465

  2- 1- 8  111.55700128   2- 3- 9  111.25896188   2- 3-10  109.87157981   2- 3-11  110.58063901

  2- 4- 5  109.21650043   3- 2- 4  118.08344078   4- 5-12   98.69409337   6- 1- 7  108.91197129

  6- 1- 8  107.72355525   7- 1- 8  107.80550765   9- 3-10  109.14141685   9- 3-11  107.81661432

 10- 3-11  108.08809788

 NUCLEAR CHARGE:                   41
 NUMBER OF PRIMITIVE AOS:         184
 NUMBER OF SYMMETRY AOS:          179
 NUMBER OF CONTRACTIONS:          105   ( 105A   )
 NUMBER OF CORE ORBITALS:           5   (   5A   )
 NUMBER OF VALENCE ORBITALS:       27   (  27A   )


 NUCLEAR REPULSION ENERGY  183.24797329


 Eigenvalues of metric

         1 0.346E-02 0.435E-02 0.105E-01 0.141E-01 0.182E-01 0.214E-01 0.331E-01 0.345E-01


 Contracted 2-electron integrals neglected if value below      1.0D-16
 AO integral compression algorithm  1   Integral accuracy      1.0D-16

     127.402 MB (compressed) written to integral file ( 93.4%)

     Node minimum: 34.341 MB, node maximum: 56.623 MB


 NUMBER OF SORTED TWO-ELECTRON INTEGRALS:    5164320.     BUFFER LENGTH:  32768
 NUMBER OF SEGMENTS:   1  SEGMENT LENGTH:    5164320      RECORD LENGTH: 524288

 Memory used in sort:       5.72 MW

 SORT1 READ    17075494. AND WROTE     5135936. INTEGRALS IN     15 RECORDS. CPU TIME:     0.29 SEC, REAL TIME:     0.34 SEC
 SORT2 READ    15396717. AND WROTE    15487395. INTEGRALS IN    648 RECORDS. CPU TIME:     0.09 SEC, REAL TIME:     0.12 SEC

 Node minimum:     5160610.  Node maximum:     5164320. integrals

 OPERATOR DM      FOR CENTER  0  COORDINATES:    0.000000    0.000000    0.000000


 **********************************************************************************************************************************
 DATASETS  * FILE   NREC   LENGTH (MB)   RECORD NAMES
              1      18        3.17       500      610      700      900      950      970     1000      129      960     1100   
                                          VAR    BASINP    GEOM    SYMINP    ZMAT    AOBASIS   BASIS     P2S    ABASIS      S 
                                         1400     1410     1200     1210     1080     1600     1650     1700   
                                           T        V       H0       H01     AOSYM     SMH    MOLCAS    OPER   

 PROGRAMS   *        TOTAL       INT
 CPU TIMES  *         1.12      1.04
 REAL TIME  *         1.51 SEC
 DISK USED  *       318.25 MB      
 GA USED    *         0.00 MB       (max)       0.00 MB       (current)
 **********************************************************************************************************************************

1PROGRAM * RHF-SCF (OPEN SHELL)       Authors: W. Meyer, H.-J. Werner


 NUMBER OF ELECTRONS:      21+   20-    SPACE SYMMETRY=1    SPIN SYMMETRY: Doublet 
 CONVERGENCE THRESHOLDS:    1.00E-10 (Density)    1.00E-11 (Energy)
 MAX. NUMBER OF ITERATIONS:      200
 INTERPOLATION TYPE:            DIIS
 INTERPOLATION STEPS:              2 (START)      1 (STEP)
 LEVEL SHIFTS:                 -0.30 (CLOSED)  0.00 (OPEN) 



 Orbital guess generated from atomic densities. Full valence occupancy:   32

 Molecular orbital dump at record        2100.2

 ITERATION    DDIFF          GRAD             ENERGY        2-EL.EN.            DIPOLE MOMENTS         DIIS
    1      0.000D+00      0.000D+00      -267.17828692    555.857777    0.57142    0.04875   -0.74795    0
    2      0.000D+00      0.617D-02      -267.24899212    555.783390    0.41443   -0.13203   -0.59737    1
    3      0.928D-02      0.214D-02      -267.26118064    555.700369    0.39396   -0.05984   -0.62474    2
    4      0.336D-02      0.913D-03      -267.26480095    555.853095    0.37908   -0.09995   -0.64126    3
    5      0.186D-02      0.364D-03      -267.26537305    555.824549    0.38149   -0.09346   -0.63426    4
    6      0.794D-03      0.110D-03      -267.26545014    555.810796    0.37969   -0.09327   -0.63703    5
    7      0.278D-03      0.514D-04      -267.26547050    555.807787    0.37893   -0.09301   -0.63653    6
    8      0.144D-03      0.274D-04      -267.26547662    555.805843    0.37918   -0.09312   -0.63675    7
    9      0.929D-04      0.115D-04      -267.26547755    555.806155    0.37936   -0.09308   -0.63651    8
   10      0.367D-04      0.503D-05      -267.26547770    555.806769    0.37962   -0.09309   -0.63658    9
   11      0.147D-04      0.197D-05      -267.26547773    555.806609    0.37967   -0.09309   -0.63658    9
   12      0.652D-05      0.671D-06      -267.26547773    555.806743    0.37969   -0.09309   -0.63658    9
   13      0.227D-05      0.227D-06      -267.26547773    555.806659    0.37969   -0.09309   -0.63658    9
   14      0.632D-06      0.759D-07      -267.26547773    555.806668    0.37969   -0.09309   -0.63658    9
   15      0.193D-06      0.301D-07      -267.26547773    555.806664    0.37969   -0.09309   -0.63658    9
   16      0.826D-07      0.145D-07      -267.26547773    555.806665    0.37969   -0.09309   -0.63658    9
   17      0.375D-07      0.751D-08      -267.26547773    555.806665    0.37969   -0.09309   -0.63658    9
   18      0.223D-07      0.342D-08      -267.26547773    555.806665    0.37969   -0.09309   -0.63658    9
   19      0.114D-07      0.134D-08      -267.26547773    555.806665    0.37969   -0.09309   -0.63658    9
   20      0.445D-08      0.570D-09      -267.26547773    555.806665    0.37969   -0.09309   -0.63658    9
   21      0.167D-08      0.288D-09      -267.26547773    555.806665    0.37969   -0.09309   -0.63658    9
   22      0.758D-09      0.162D-09      -267.26547773    555.806665    0.37969   -0.09309   -0.63658    9
   23      0.447D-09      0.798D-10      -267.26547773    555.806665    0.37969   -0.09309   -0.63658    9
   24      0.264D-09      0.318D-10      -267.26547773    555.806665    0.37969   -0.09309   -0.63658    9
   25      0.936D-10      0.130D-10      -267.26547773    555.806665    0.37969   -0.09309   -0.63658    0

 Final alpha occupancy:  21
 Final beta  occupancy:  20

 !RHF STATE 1.1 Energy               -267.265477733374
 Nuclear energy                       183.24797329
 One-electron energy                 -728.41678375
 Two-electron energy                  277.90333273
 Virial quotient                       -1.00153728
 !RHF STATE 1.1 Dipole moment           0.37969425    -0.09309024    -0.63657517
 Dipole moment /Debye                   0.96502332    -0.23659629    -1.61790673

 Orbital energies:

         1.1          2.1          3.1          4.1          5.1          6.1          7.1          8.1          9.1         10.1
    -20.630591   -20.628754   -11.279232   -11.237889   -11.232052    -1.470553    -1.241201    -1.023178    -0.945344    -0.768662

        11.1         12.1         13.1         14.1         15.1         16.1         17.1         18.1         19.1         20.1
     -0.704964    -0.643047    -0.626911    -0.588899    -0.545245    -0.543463    -0.539056    -0.516950    -0.493179    -0.469777

        21.1         22.1         23.1
     -0.352231     0.181392     0.183618


 **********************************************************************************************************************************
 DATASETS  * FILE   NREC   LENGTH (MB)   RECORD NAMES
              1      18        3.17       500      610      700      900      950      970     1000      129      960     1100   
                                          VAR    BASINP    GEOM    SYMINP    ZMAT    AOBASIS   BASIS     P2S    ABASIS      S 
                                         1400     1410     1200     1210     1080     1600     1650     1700   
                                           T        V       H0       H01     AOSYM     SMH    MOLCAS    OPER   

              2       3        0.77       700     1000     2100   
                                         GEOM     BASIS     RHF  

 PROGRAMS   *        TOTAL       RHF       INT
 CPU TIMES  *         2.47      1.35      1.04
 REAL TIME  *         3.01 SEC
 DISK USED  *       334.82 MB      
 SF USED    *         0.04 MB      
 GA USED    *         0.00 MB       (max)       0.00 MB       (current)
 **********************************************************************************************************************************


1PROGRAM * CCSD (Unrestricted open-shell coupled cluster)     Authors: C. Hampel, H.-J. Werner, 1991, M. Deegan, P.J. Knowles, 1992


 Convergence thresholds:  THRVAR = 1.00D-08  THRDEN = 1.00D-10

 CCSD(T)     terms to be evaluated (factor= 1.000)


 Number of core orbitals:           5 (   5 )
 Number of closed-shell orbitals:  15 (  15 )
 Number of active  orbitals:        1 (   1 )
 Number of external orbitals:      84 (  84 )

 Memory could be reduced to 24.91 Mwords without degradation in triples

 Number of N-1 electron functions:              31
 Number of N-2 electron functions:             465
 Number of singly external CSFs:              2635
 Number of doubly external CSFs:           2537250
 Total number of CSFs:                     2539885

 Molecular orbitals read from record     2100.2  Type=RHF/CANONICAL (state 1.1)

 Integral transformation finished. Total CPU:   0.93 sec, npass=  1  Memory used:  12.63 MW

 Starting RMP2 calculation

 ITER.      SQ.NORM     CORR.ENERGY   TOTAL ENERGY   ENERGY CHANGE        DEN1      VAR(S)    VAR(P)  DIIS     TIME
   1      1.24295982    -0.78629673  -268.05177446    -0.78629673    -0.00304836  0.20D-04  0.11D-02  1  1     1.26
   2      1.24559951    -0.78958412  -268.05506186    -0.00328740    -0.00000474  0.54D-06  0.19D-05  2  2     1.53
   3      1.24566501    -0.78962616  -268.05510389    -0.00004203    -0.00000003  0.16D-07  0.68D-08  3  3     1.83
   4      1.24566596    -0.78962616  -268.05510389    -0.00000000    -0.00000000  0.27D-09  0.38D-10  4  4     2.15
   5      1.24566604    -0.78962619  -268.05510393    -0.00000003    -0.00000000  0.25D-11  0.65D-12  5  5     2.49
   6      1.24566605    -0.78962620  -268.05510393    -0.00000001    -0.00000000  0.28D-13  0.86D-14  6  6     2.85
   7      1.24566605    -0.78962620  -268.05510393     0.00000000    -0.00000000  0.47D-15  0.12D-15  6  1     3.21
   8      1.24566605    -0.78962620  -268.05510393     0.00000000    -0.00000000  0.59D-17  0.13D-17  6  2     3.57

 Norm of t1 vector:      0.03892250      S-energy:    -0.00227090      T1 diagnostic:  0.00054997
 Norm of t2 vector:      0.49411648      P-energy:    -0.78735530
                                         Alpha-Beta:  -0.59334834
                                         Alpha-Alpha: -0.10093406
                                         Beta-Beta:   -0.09307290

 Spin contamination <S**2-Sz**2-Sz>     0.00104016
  Reference energy                   -267.265477733374
  RHF-RMP2 correlation energy          -0.789626198441
 !RHF-RMP2 energy                    -268.055103931815

 Starting UCCSD calculation

 ITER.      SQ.NORM     CORR.ENERGY   TOTAL ENERGY   ENERGY CHANGE        DEN1      VAR(S)    VAR(P)  DIIS     TIME
   1      1.26273694    -0.80898380  -268.07446154    -0.80898380    -0.02514534  0.37D-02  0.59D-02  1  1     9.82
   2      1.29149350    -0.83638223  -268.10185996    -0.02739843    -0.00200900  0.22D-03  0.66D-03  2  2    16.05
   3      1.30142435    -0.84087636  -268.10635409    -0.00449413    -0.00032429  0.19D-03  0.56D-04  3  3    22.29
   4      1.30633281    -0.84235199  -268.10782973    -0.00147563    -0.00007203  0.43D-04  0.14D-04  4  4    28.01
   5      1.30906159    -0.84273989  -268.10821763    -0.00038790    -0.00002366  0.19D-04  0.32D-05  5  5    33.74
   6      1.31100070    -0.84294433  -268.10842206    -0.00020443    -0.00000646  0.42D-05  0.12D-05  6  6    39.53
   7      1.31195001    -0.84300308  -268.10848082    -0.00005876    -0.00000208  0.14D-05  0.37D-06  6  2    45.31
   8      1.31239191    -0.84304577  -268.10852350    -0.00004268    -0.00000065  0.45D-06  0.11D-06  6  1    51.07
   9      1.31257749    -0.84305036  -268.10852809    -0.00000459    -0.00000022  0.15D-06  0.35D-07  6  4    57.17
  10      1.31264076    -0.84305327  -268.10853101    -0.00000291    -0.00000005  0.35D-07  0.95D-08  6  3    63.48
  11      1.31267039    -0.84305204  -268.10852977     0.00000124    -0.00000002  0.13D-07  0.28D-08  6  5    69.79
  12      1.31268082    -0.84305179  -268.10852952     0.00000025    -0.00000000  0.26D-08  0.95D-09  6  6    76.06
  13      1.31267968    -0.84305087  -268.10852861     0.00000091    -0.00000000  0.96D-09  0.28D-09  6  2    81.87
  14      1.31267447    -0.84305003  -268.10852776     0.00000085    -0.00000000  0.21D-09  0.67D-10  6  1    87.64
  15      1.31267040    -0.84304944  -268.10852718     0.00000059    -0.00000000  0.78D-10  0.19D-10  6  4    93.42
  16      1.31266721    -0.84304906  -268.10852679     0.00000038    -0.00000000  0.28D-10  0.63D-11  6  3    99.20
  17      1.31266501    -0.84304882  -268.10852655     0.00000024    -0.00000000  0.10D-10  0.24D-11  6  5   104.99
  18      1.31266411    -0.84304876  -268.10852649     0.00000006    -0.00000000  0.41D-11  0.87D-12  6  6   110.76
  19      1.31266350    -0.84304873  -268.10852646     0.00000003    -0.00000000  0.16D-11  0.37D-12  6  2   116.28
  20      1.31266318    -0.84304871  -268.10852645     0.00000001    -0.00000000  0.60D-12  0.13D-12  6  1   122.08
  21      1.31266301    -0.84304870  -268.10852644     0.00000001    -0.00000000  0.28D-12  0.58D-13  6  4   127.85
  22      1.31266289    -0.84304870  -268.10852643     0.00000001    -0.00000000  0.73D-13  0.21D-13  6  3   133.63
  23      1.31266283    -0.84304869  -268.10852643     0.00000000    -0.00000000  0.21D-13  0.63D-14  6  5   139.41
  24      1.31266283    -0.84304869  -268.10852643    -0.00000000    -0.00000000  0.67D-14  0.22D-14  6  6   145.74
  25      1.31266283    -0.84304870  -268.10852643    -0.00000000    -0.00000000  0.21D-14  0.52D-15  6  2   151.82
  26      1.31266284    -0.84304870  -268.10852643    -0.00000000    -0.00000000  0.77D-15  0.15D-15  6  1   156.70
  27      1.31266285    -0.84304870  -268.10852643    -0.00000000    -0.00000000  0.20D-15  0.62D-16  6  3   161.55
  28      1.31266285    -0.84304870  -268.10852643    -0.00000000    -0.00000000  0.30D-16  0.11D-16  6  4   166.78
  29      1.31266286    -0.84304870  -268.10852643    -0.00000000    -0.00000000  0.71D-17  0.29D-17  6  5   172.68
  30      1.31266286    -0.84304870  -268.10852643    -0.00000000    -0.00000000  0.15D-17  0.54D-18  6  6   177.81
  31      1.31266286    -0.84304870  -268.10852643    -0.00000000    -0.00000000  0.35D-18  0.10D-18  6  2   182.66

 Norm of t1 vector:      0.13867297      S-energy:    -0.00282025      T1 diagnostic:  0.01616358
                                                                       D1 diagnostic:  0.06279793
 Norm of t2 vector:      0.54169425      P-energy:    -0.84022845
                                         Alpha-Beta:  -0.66478318
                                         Alpha-Alpha: -0.09147420
                                         Beta-Beta:   -0.08397107

 Spin contamination <S**2-Sz**2-Sz>     0.00217304

 Memory could be reduced to 28.85 Mwords without degradation in triples
 

 RESULTS
 =======

  Reference energy                   -267.265477733374
  UCCSD singles energy                 -0.002820248446
  UCCSD pair energy                    -0.840228448484
  UCCSD correlation energy             -0.843048696931
  Triples (T) contribution             -0.024967671593
  Total correlation energy             -0.868016368524
 
  RHF-UCCSD energy                   -268.108526430305
  RHF-UCCSD[T] energy                -268.134828423112
  RHF-UCCSD-T energy                 -268.133073301920
 !RHF-UCCSD(T) energy                -268.133494101898

 Program statistics:

 Available memory in ccsd:               999997692
 Min. memory needed in ccsd:               7337057
 Max. memory used in ccsd:                10523002
 Max. memory used in cckext:              10867977 (31 integral passes)
 Max. memory used in cckint:              12633073 ( 1 integral passes)



 **********************************************************************************************************************************
 DATASETS  * FILE   NREC   LENGTH (MB)   RECORD NAMES
              1      18        3.17       500      610      700      900      950      970     1000      129      960     1100   
                                          VAR    BASINP    GEOM    SYMINP    ZMAT    AOBASIS   BASIS     P2S    ABASIS      S 
                                         1400     1410     1200     1210     1080     1600     1650     1700   
                                           T        V       H0       H01     AOSYM     SMH    MOLCAS    OPER   

              2       3        0.77       700     1000     2100   
                                         GEOM     BASIS     RHF  

 PROGRAMS   *        TOTAL  UCCSD(T)       RHF       INT
 CPU TIMES  *       222.34    219.87      1.35      1.04
 REAL TIME  *       231.67 SEC
 DISK USED  *         1.30 GB      
 SF USED    *       553.73 MB      
 GA USED    *         0.00 MB       (max)       0.00 MB       (current)
 **********************************************************************************************************************************

        UCCSD(T)        RHF-SCF 
   -268.13349410   -267.26547773
 **********************************************************************************************************************************
 Variable memory released
