
 Primary working directories    : /tmp/320938.443.gen4.q
 Secondary working directories  : /tmp/320938.443.gen4.q
 Wavefunction directory         : /home/vulcan/mel64643/wfu/
 Main file repository           : /tmp/320938.443.gen4.q/

 ARCHNAME  : Linux/x86_64
 FC        : /opt/intel/compilers_and_libraries_2016.1.150/linux/bin/intel64/ifort
 FCVERSION : 16.0.1
 BLASLIB   : -mkl
 id        : ccgc

 Nodes     nprocs
 n058         3
 Number of processes for MPI-2 version of Molpro:   nprocs(total)=    4   nprocs(compute)=    3   nprocs(helper)=    1
 ga_uses_ma=false, calling ma_init with nominal heap.
 GA-space will be limited to   8.0 MW (determined by -G option)

 Using customized tuning parameters: mindgm=10; mindgv=16; mindgc=4; mindgr=1; noblas=0; mincuda=1000; minvec=7
 default implementation of scratch files=sf  

 ***,Frequencies for min3
 memory,1000,m
 gthresh,energy=1.0d-10,orbital=1.0d-10,oneint=1.0d-16,twoint=1.0d-16,optgrad=1.0d-6,compress=1.0d-13
 geomtyp=xyz
 
  geometry = {
  12
  arbitrary comment
     C    1.776964391707    0.711398808326   -0.047331391796
     C    0.491811976407   -0.059992870174   -0.196493901896
     C    0.450332819107   -1.536294019674    0.101417522804
     O   -0.560767745493    0.727234937526    0.254453964104
     O   -1.837840335593    0.092269037726   -0.120531795196
     H    2.585373063107    0.211465914126   -0.609253730037
     H    1.660339334268    1.742842534338   -0.427332566110
     H    2.095430339175    0.774065674771    1.016773924567
     H   -0.504973629472   -1.982768234876   -0.218168284128
     H    1.282270032552   -2.046529355779   -0.418248816138
     H    0.561452755979   -1.720003286182    1.193644421180
     H   -1.988208287160    0.551014758283   -0.967232023603
  }
 
 basis=cc-pvdz
 {rhf;maxit,200}
 {uccsd(t);maxit,200}

 Variables initialized (661), CPU time= 0.00 sec
 Commands  initialized (458), CPU time= 0.01 sec, 486 directives.
 Default parameters read. Elapsed time= 0.06 sec

 Checking input...
 Passed
1


                                         ***  PROGRAM SYSTEM MOLPRO  ***
                         Copyright, University College Cardiff Consultants Limited, 2008

                                    Version 2010.1 linked May 16 2016 07:17:05


 **********************************************************************************************************************************
 LABEL *   Frequencies for min3                                                          
 Linux-4.4.3/n058(x86_64) 64 bit mpp version                                             DATE: 07-Mar-20          TIME: 03:34:35  
 **********************************************************************************************************************************

 SHA1:             9e8077add272b0f3cad6f7df79ec5211205f459d
 **********************************************************************************************************************************

 THRESHOLDS:

 ZERO    =  1.00D-12  ONEINT  =  1.00D-16  TWOINT  =  1.00D-16  PREFAC  =  1.00D-14  LOCALI  =  1.00D-09  EORDER  =  1.00D-04
 ENERGY  =  1.00D-10  ETEST   =  0.00D+00  EDENS   =  0.00D+00  THRDEDEF=  1.00D-06  GRADIENT=  1.00D-02  STEP    =  1.00D-03
 ORBITAL =  1.00D-10  CIVEC   =  1.00D-05  COEFF   =  1.00D-04  PRINTCI =  5.00D-02  PUNCHCI =  9.90D+01  OPTGRAD =  1.00D-06
 OPTENERG=  1.00D-06  OPTSTEP =  3.00D-04  THRGRAD =  1.00D-10  COMPRESS=  1.00D-13  VARMIN  =  1.00D-07  VARMAX  =  1.00D-03
 THRDOUB =  0.00D+00  THRDIV  =  1.00D-05  THRRED  =  1.00D-07  THRPSP  =  1.00D+00  THRDC   =  1.00D-10  THRCS   =  1.00D-10
 THRNRM  =  1.00D-08  THREQ   =  0.00D+00  THRDE   =  1.00D+00  THRREF  =  1.00D-05  SPARFAC =  1.00D+00  THRDLP  =  1.00D-07
 THRDIA  =  1.00D-10  THRDLS  =  1.00D-07  THRGPS  =  0.00D+00  THRKEX  =  0.00D+00  THRDIS  =  2.00D-01  THRVAR  =  1.00D-10
 THRLOC  =  1.00D-06  THRGAP  =  1.00D-06  THRLOCT = -1.00D+00  THRGAPT = -1.00D+00  THRORB  =  1.00D-06  THRMLTP =  0.00D+00
 THRCPQCI=  1.00D-10  KEXTA   =  0.00D+00  THRCOARS=  0.00D+00  SYMTOL  =  1.00D-06  GRADTOL =  1.00D-06  THROVL  =  1.00D-08
 THRORTH =  1.00D-08  GRID    =  1.00D-06  GRIDMAX =  1.00D-03  DTMAX   =  0.00D+00

 SETTING GEOMTYP        =    XYZ

 Variable memory set to 1000000000 words,  buffer space   230000 words

 SETTING BASIS          =    CC-PVDZ


 Recomputing integrals since basis changed


 Using spherical harmonics

 Library entry C      S cc-pVDZ              selected for orbital group  1
 Library entry C      P cc-pVDZ              selected for orbital group  1
 Library entry C      D cc-pVDZ              selected for orbital group  1
 Library entry O      S cc-pVDZ              selected for orbital group  2
 Library entry O      P cc-pVDZ              selected for orbital group  2
 Library entry O      D cc-pVDZ              selected for orbital group  2
 Library entry H      S cc-pVDZ              selected for orbital group  3
 Library entry H      P cc-pVDZ              selected for orbital group  3

1PROGRAM * SEWARD (Integral evaluation for generally contracted gaussian basis sets)     Author: Roland Lindh, 1990

 Geometry written to block  1 of record 700


 Point group  C1  



 ATOMIC COORDINATES

 NR  ATOM    CHARGE       X              Y              Z

   1  C       6.00    3.357976046    1.344348918   -0.089443368
   2  C       6.00    0.929389944   -0.113370094   -0.371319661
   3  C       6.00    0.851005696   -2.903174955    0.191651343
   4  O       8.00   -1.059697462    1.374274865    0.480848305
   5  O       8.00   -3.473014908    0.174363212   -0.227772083
   6  H       1.00    4.885647037    0.399612664   -1.151322694
   7  H       1.00    3.137586627    3.293495080   -0.807541517
   8  H       1.00    3.959789469    1.462772133    1.921424255
   9  H       1.00   -0.954261863   -3.746888946   -0.412278308
  10  H       1.00    2.423139188   -3.867380002   -0.790375717
  11  H       1.00    1.060991945   -3.250335156    2.255661054
  12  H       1.00   -3.757169155    1.041266988   -1.827803630

 Bond lengths in Bohr (Angstrom)

 1-2  2.846476668  1-6  2.086598416  1-7  2.088877021  1-8  2.102330148  2-3  2.847119878
     ( 1.506290578)     ( 1.104180326)     ( 1.105386112)     ( 1.112505200)     ( 1.506630951)

  2- 4  2.625975338   3- 9  2.082204429   3-10  2.089419115   3-11  2.103509096   4- 5  2.786760112
       ( 1.389606300)       ( 1.101855128)       ( 1.105672976)       ( 1.113129073)       ( 1.474689938)

  5-12  1.841837871
       ( 0.974658624)

 Bond angles

  1-2-3  120.37866573   1-2-4  108.90555081   2-1-6  110.02247457   2-1-7  110.71975664

  2- 1- 8  111.57998328   2- 3- 9  111.31919212   2- 3-10  109.78738371   2- 3-11  110.67020803

  2- 4- 5  109.23946113   3- 2- 4  118.03986083   4- 5-12   98.73360745   6- 1- 7  108.95191967

  6- 1- 8  107.61908712   7- 1- 8  107.84585239   9- 3-10  109.21069020   9- 3-11  107.71440172

 10- 3-11  108.05331536

 NUCLEAR CHARGE:                   41
 NUMBER OF PRIMITIVE AOS:         184
 NUMBER OF SYMMETRY AOS:          179
 NUMBER OF CONTRACTIONS:          105   ( 105A   )
 NUMBER OF CORE ORBITALS:           5   (   5A   )
 NUMBER OF VALENCE ORBITALS:       27   (  27A   )


 NUCLEAR REPULSION ENERGY  183.23044697


 Eigenvalues of metric

         1 0.345E-02 0.435E-02 0.105E-01 0.141E-01 0.182E-01 0.214E-01 0.331E-01 0.345E-01


 Contracted 2-electron integrals neglected if value below      1.0D-16
 AO integral compression algorithm  1   Integral accuracy      1.0D-16

     127.402 MB (compressed) written to integral file ( 93.4%)

     Node minimum: 40.370 MB, node maximum: 44.827 MB


 NUMBER OF SORTED TWO-ELECTRON INTEGRALS:    5164320.     BUFFER LENGTH:  32768
 NUMBER OF SEGMENTS:   1  SEGMENT LENGTH:    5164320      RECORD LENGTH: 524288

 Memory used in sort:       5.72 MW

 SORT1 READ    17075332. AND WROTE     5135903. INTEGRALS IN     15 RECORDS. CPU TIME:     0.22 SEC, REAL TIME:     0.26 SEC
 SORT2 READ    15396657. AND WROTE    15487395. INTEGRALS IN    462 RECORDS. CPU TIME:     0.07 SEC, REAL TIME:     0.11 SEC

 Node minimum:     5160610.  Node maximum:     5164320. integrals

 OPERATOR DM      FOR CENTER  0  COORDINATES:    0.000000    0.000000    0.000000


 **********************************************************************************************************************************
 DATASETS  * FILE   NREC   LENGTH (MB)   RECORD NAMES
              1      18        3.17       500      610      700      900      950      970     1000      129      960     1100   
                                          VAR    BASINP    GEOM    SYMINP    ZMAT    AOBASIS   BASIS     P2S    ABASIS      S 
                                         1400     1410     1200     1210     1080     1600     1650     1700   
                                           T        V       H0       H01     AOSYM     SMH    MOLCAS    OPER   

 PROGRAMS   *        TOTAL       INT
 CPU TIMES  *         0.95      0.89
 REAL TIME  *         1.40 SEC
 DISK USED  *       306.22 MB      
 GA USED    *         0.00 MB       (max)       0.00 MB       (current)
 **********************************************************************************************************************************

1PROGRAM * RHF-SCF (OPEN SHELL)       Authors: W. Meyer, H.-J. Werner


 NUMBER OF ELECTRONS:      21+   20-    SPACE SYMMETRY=1    SPIN SYMMETRY: Doublet 
 CONVERGENCE THRESHOLDS:    1.00E-10 (Density)    1.00E-11 (Energy)
 MAX. NUMBER OF ITERATIONS:      200
 INTERPOLATION TYPE:            DIIS
 INTERPOLATION STEPS:              2 (START)      1 (STEP)
 LEVEL SHIFTS:                 -0.30 (CLOSED)  0.00 (OPEN) 



 Orbital guess generated from atomic densities. Full valence occupancy:   32

 Molecular orbital dump at record        2100.2

 ITERATION    DDIFF          GRAD             ENERGY        2-EL.EN.            DIPOLE MOMENTS         DIIS
    1      0.000D+00      0.000D+00      -267.17826006    555.834475    0.56992    0.04988   -0.74951    0
    2      0.000D+00      0.617D-02      -267.24896345    555.755162    0.41407   -0.13110   -0.59834    1
    3      0.928D-02      0.214D-02      -267.26114053    555.673175    0.39383   -0.05927   -0.62558    2
    4      0.336D-02      0.912D-03      -267.26474841    555.825452    0.37926   -0.09950   -0.64187    3
    5      0.186D-02      0.364D-03      -267.26531736    555.796829    0.38183   -0.09304   -0.63480    4
    6      0.792D-03      0.110D-03      -267.26539377    555.783069    0.38010   -0.09286   -0.63752    5
    7      0.277D-03      0.511D-04      -267.26541391    555.780068    0.37940   -0.09261   -0.63701    6
    8      0.144D-03      0.273D-04      -267.26541998    555.778120    0.37968   -0.09272   -0.63722    7
    9      0.924D-04      0.115D-04      -267.26542089    555.778433    0.37987   -0.09268   -0.63697    8
   10      0.366D-04      0.501D-05      -267.26542105    555.779046    0.38013   -0.09269   -0.63704    9
   11      0.147D-04      0.196D-05      -267.26542108    555.778887    0.38018   -0.09269   -0.63704    9
   12      0.651D-05      0.671D-06      -267.26542108    555.779022    0.38020   -0.09269   -0.63704    9
   13      0.227D-05      0.226D-06      -267.26542108    555.778938    0.38020   -0.09269   -0.63704    9
   14      0.632D-06      0.758D-07      -267.26542108    555.778946    0.38020   -0.09269   -0.63704    9
   15      0.193D-06      0.300D-07      -267.26542108    555.778942    0.38020   -0.09269   -0.63704    9
   16      0.825D-07      0.145D-07      -267.26542108    555.778944    0.38020   -0.09269   -0.63704    9
   17      0.375D-07      0.752D-08      -267.26542108    555.778944    0.38020   -0.09269   -0.63704    9
   18      0.223D-07      0.342D-08      -267.26542108    555.778944    0.38020   -0.09269   -0.63704    9
   19      0.114D-07      0.133D-08      -267.26542108    555.778944    0.38020   -0.09269   -0.63704    9
   20      0.444D-08      0.568D-09      -267.26542108    555.778944    0.38020   -0.09269   -0.63704    9
   21      0.166D-08      0.287D-09      -267.26542108    555.778944    0.38020   -0.09269   -0.63704    9
   22      0.755D-09      0.162D-09      -267.26542108    555.778944    0.38020   -0.09269   -0.63704    9
   23      0.446D-09      0.796D-10      -267.26542108    555.778944    0.38020   -0.09269   -0.63704    9
   24      0.264D-09      0.317D-10      -267.26542108    555.778944    0.38020   -0.09269   -0.63704    9
   25      0.933D-10      0.129D-10      -267.26542108    555.778944    0.38020   -0.09269   -0.63704    0

 Final alpha occupancy:  21
 Final beta  occupancy:  20

 !RHF STATE 1.1 Energy               -267.265421081355
 Nuclear energy                       183.23044697
 One-electron energy                 -728.38534010
 Two-electron energy                  277.88947204
 Virial quotient                       -1.00154451
 !RHF STATE 1.1 Dipole moment           0.38020274    -0.09269073    -0.63703743
 Dipole moment /Debye                   0.96631569    -0.23558091    -1.61908159

 Orbital energies:

         1.1          2.1          3.1          4.1          5.1          6.1          7.1          8.1          9.1         10.1
    -20.630452   -20.628826   -11.279248   -11.237700   -11.232074    -1.470117    -1.240662    -1.023279    -0.945469    -0.768516

        11.1         12.1         13.1         14.1         15.1         16.1         17.1         18.1         19.1         20.1
     -0.704531    -0.643062    -0.626803    -0.588848    -0.545182    -0.543400    -0.539085    -0.517010    -0.493019    -0.469759

        21.1         22.1         23.1
     -0.352315     0.181265     0.183589


 **********************************************************************************************************************************
 DATASETS  * FILE   NREC   LENGTH (MB)   RECORD NAMES
              1      18        3.17       500      610      700      900      950      970     1000      129      960     1100   
                                          VAR    BASINP    GEOM    SYMINP    ZMAT    AOBASIS   BASIS     P2S    ABASIS      S 
                                         1400     1410     1200     1210     1080     1600     1650     1700   
                                           T        V       H0       H01     AOSYM     SMH    MOLCAS    OPER   

              2       3        0.77       700     1000     2100   
                                         GEOM     BASIS     RHF  

 PROGRAMS   *        TOTAL       RHF       INT
 CPU TIMES  *         2.05      1.10      0.89
 REAL TIME  *         2.65 SEC
 DISK USED  *       322.79 MB      
 SF USED    *         0.04 MB      
 GA USED    *         0.00 MB       (max)       0.00 MB       (current)
 **********************************************************************************************************************************


1PROGRAM * CCSD (Unrestricted open-shell coupled cluster)     Authors: C. Hampel, H.-J. Werner, 1991, M. Deegan, P.J. Knowles, 1992


 Convergence thresholds:  THRVAR = 1.00D-08  THRDEN = 1.00D-10

 CCSD(T)     terms to be evaluated (factor= 1.000)


 Number of core orbitals:           5 (   5 )
 Number of closed-shell orbitals:  15 (  15 )
 Number of active  orbitals:        1 (   1 )
 Number of external orbitals:      84 (  84 )

 Memory could be reduced to 24.91 Mwords without degradation in triples

 Number of N-1 electron functions:              31
 Number of N-2 electron functions:             465
 Number of singly external CSFs:              2635
 Number of doubly external CSFs:           2537250
 Total number of CSFs:                     2539885

 Molecular orbitals read from record     2100.2  Type=RHF/CANONICAL (state 1.1)

 Integral transformation finished. Total CPU:   0.90 sec, npass=  1  Memory used:  12.63 MW

 Starting RMP2 calculation

 ITER.      SQ.NORM     CORR.ENERGY   TOTAL ENERGY   ENERGY CHANGE        DEN1      VAR(S)    VAR(P)  DIIS     TIME
   1      1.24299993    -0.78635589  -268.05177697    -0.78635589    -0.00304915  0.20D-04  0.11D-02  1  1     1.23
   2      1.24564041    -0.78964416  -268.05506524    -0.00328827    -0.00000474  0.54D-06  0.19D-05  2  2     1.53
   3      1.24570592    -0.78968620  -268.05510728    -0.00004204    -0.00000003  0.16D-07  0.68D-08  3  3     1.86
   4      1.24570687    -0.78968620  -268.05510728    -0.00000000    -0.00000000  0.27D-09  0.38D-10  4  4     2.22
   5      1.24570695    -0.78968624  -268.05510732    -0.00000003    -0.00000000  0.25D-11  0.65D-12  5  5     2.60
   6      1.24570696    -0.78968624  -268.05510732    -0.00000001    -0.00000000  0.28D-13  0.86D-14  6  6     3.01
   7      1.24570696    -0.78968624  -268.05510732     0.00000000    -0.00000000  0.47D-15  0.12D-15  6  1     3.43
   8      1.24570696    -0.78968624  -268.05510732     0.00000000    -0.00000000  0.59D-17  0.13D-17  6  2     3.85

 Norm of t1 vector:      0.03892356      S-energy:    -0.00227096      T1 diagnostic:  0.00055010
 Norm of t2 vector:      0.49415779      P-energy:    -0.78741528
                                         Alpha-Beta:  -0.59339523
                                         Alpha-Alpha: -0.10094040
                                         Beta-Beta:   -0.09307965

 Spin contamination <S**2-Sz**2-Sz>     0.00103995
  Reference energy                   -267.265421081354
  RHF-RMP2 correlation energy          -0.789686240842
 !RHF-RMP2 energy                    -268.055107322196

 Starting UCCSD calculation

 ITER.      SQ.NORM     CORR.ENERGY   TOTAL ENERGY   ENERGY CHANGE        DEN1      VAR(S)    VAR(P)  DIIS     TIME
   1      1.26276676    -0.80902573  -268.07444681    -0.80902573    -0.02515269  0.38D-02  0.59D-02  1  1     9.20
   2      1.29153264    -0.83643073  -268.10185181    -0.02740500    -0.00201066  0.22D-03  0.66D-03  2  2    14.55
   3      1.30147049    -0.84092738  -268.10634846    -0.00449665    -0.00032460  0.19D-03  0.56D-04  3  3    19.93
   4      1.30638313    -0.84240423  -268.10782531    -0.00147685    -0.00007209  0.43D-04  0.14D-04  4  4    25.31
   5      1.30911326    -0.84279236  -268.10821344    -0.00038813    -0.00002367  0.19D-04  0.32D-05  5  5    30.73
   6      1.31105260    -0.84299685  -268.10841793    -0.00020449    -0.00000646  0.42D-05  0.12D-05  6  6    36.25
   7      1.31200215    -0.84305565  -268.10847673    -0.00005880    -0.00000208  0.14D-05  0.37D-06  6  2    41.73
   8      1.31244396    -0.84309834  -268.10851942    -0.00004269    -0.00000065  0.45D-06  0.11D-06  6  1    47.27
   9      1.31262926    -0.84310292  -268.10852401    -0.00000458    -0.00000022  0.15D-06  0.35D-07  6  4    52.75
  10      1.31269242    -0.84310585  -268.10852693    -0.00000293    -0.00000005  0.35D-07  0.95D-08  6  3    58.24
  11      1.31272193    -0.84310459  -268.10852567     0.00000126    -0.00000002  0.13D-07  0.28D-08  6  5    63.75
  12      1.31273232    -0.84310433  -268.10852541     0.00000026    -0.00000000  0.26D-08  0.95D-09  6  6    69.23
  13      1.31273117    -0.84310342  -268.10852450     0.00000091    -0.00000000  0.96D-09  0.28D-09  6  2    74.72
  14      1.31272597    -0.84310257  -268.10852365     0.00000084    -0.00000000  0.21D-09  0.67D-10  6  1    80.19
  15      1.31272189    -0.84310199  -268.10852307     0.00000059    -0.00000000  0.78D-10  0.19D-10  6  4    85.68
  16      1.31271871    -0.84310160  -268.10852268     0.00000038    -0.00000000  0.28D-10  0.63D-11  6  3    91.21
  17      1.31271650    -0.84310136  -268.10852245     0.00000024    -0.00000000  0.10D-10  0.24D-11  6  5    96.69
  18      1.31271560    -0.84310130  -268.10852239     0.00000006    -0.00000000  0.41D-11  0.87D-12  6  6   102.19
  19      1.31271499    -0.84310127  -268.10852235     0.00000003    -0.00000000  0.16D-11  0.37D-12  6  2   107.63
  20      1.31271467    -0.84310126  -268.10852234     0.00000001    -0.00000000  0.60D-12  0.13D-12  6  1   113.78
  21      1.31271451    -0.84310125  -268.10852233     0.00000001    -0.00000000  0.28D-12  0.58D-13  6  4   120.24
  22      1.31271439    -0.84310124  -268.10852232     0.00000001    -0.00000000  0.74D-13  0.21D-13  6  3   127.40
  23      1.31271433    -0.84310124  -268.10852232     0.00000000    -0.00000000  0.21D-13  0.63D-14  6  5   135.13
  24      1.31271432    -0.84310124  -268.10852232    -0.00000000    -0.00000000  0.67D-14  0.22D-14  6  6   142.87
  25      1.31271433    -0.84310124  -268.10852232    -0.00000000    -0.00000000  0.21D-14  0.52D-15  6  2   150.56
  26      1.31271433    -0.84310124  -268.10852232    -0.00000000    -0.00000000  0.77D-15  0.15D-15  6  1   158.29
  27      1.31271434    -0.84310124  -268.10852232    -0.00000000    -0.00000000  0.20D-15  0.62D-16  6  3   166.03
  28      1.31271435    -0.84310124  -268.10852232    -0.00000000    -0.00000000  0.30D-16  0.11D-16  6  4   171.92
  29      1.31271435    -0.84310124  -268.10852232    -0.00000000    -0.00000000  0.70D-17  0.29D-17  6  5   177.38
  30      1.31271435    -0.84310124  -268.10852232    -0.00000000    -0.00000000  0.15D-17  0.54D-18  6  6   182.82
  31      1.31271435    -0.84310124  -268.10852232    -0.00000000    -0.00000000  0.35D-18  0.10D-18  6  2   188.30

 Norm of t1 vector:      0.13871286      S-energy:    -0.00282038      T1 diagnostic:  0.01616929
                                                                       D1 diagnostic:  0.06282477
 Norm of t2 vector:      0.54173157      P-energy:    -0.84028086
                                         Alpha-Beta:  -0.66483395
                                         Alpha-Alpha: -0.09147469
                                         Beta-Beta:   -0.08397222

 Spin contamination <S**2-Sz**2-Sz>     0.00217182

 Memory could be reduced to 28.85 Mwords without degradation in triples
 

 RESULTS
 =======

  Reference energy                   -267.265421081354
  UCCSD singles energy                 -0.002820383968
  UCCSD pair energy                    -0.840280856837
  UCCSD correlation energy             -0.843101240804
  Triples (T) contribution             -0.024972422057
  Total correlation energy             -0.868073662861
 
  RHF-UCCSD energy                   -268.108522322158
  RHF-UCCSD[T] energy                -268.134830523724
  RHF-UCCSD-T energy                 -268.133073298783
 !RHF-UCCSD(T) energy                -268.133494744215

 Program statistics:

 Available memory in ccsd:               999997692
 Min. memory needed in ccsd:               7337057
 Max. memory used in ccsd:                10523002
 Max. memory used in cckext:              10867977 (31 integral passes)
 Max. memory used in cckint:              12633073 ( 1 integral passes)



 **********************************************************************************************************************************
 DATASETS  * FILE   NREC   LENGTH (MB)   RECORD NAMES
              1      18        3.17       500      610      700      900      950      970     1000      129      960     1100   
                                          VAR    BASINP    GEOM    SYMINP    ZMAT    AOBASIS   BASIS     P2S    ABASIS      S 
                                         1400     1410     1200     1210     1080     1600     1650     1700   
                                           T        V       H0       H01     AOSYM     SMH    MOLCAS    OPER   

              2       3        0.77       700     1000     2100   
                                         GEOM     BASIS     RHF  

 PROGRAMS   *        TOTAL  UCCSD(T)       RHF       INT
 CPU TIMES  *       236.35    234.30      1.10      0.89
 REAL TIME  *       249.72 SEC
 DISK USED  *         1.29 GB      
 SF USED    *       553.73 MB      
 GA USED    *         0.00 MB       (max)       0.00 MB       (current)
 **********************************************************************************************************************************

        UCCSD(T)        RHF-SCF 
   -268.13349474   -267.26542108
 **********************************************************************************************************************************
 Variable memory released
