
 Primary working directories    : /tmp/320938.656.gen4.q
 Secondary working directories  : /tmp/320938.656.gen4.q
 Wavefunction directory         : /home/vulcan/mel64643/wfu/
 Main file repository           : /tmp/320938.656.gen4.q/

 ARCHNAME  : Linux/x86_64
 FC        : /opt/intel/compilers_and_libraries_2016.1.150/linux/bin/intel64/ifort
 FCVERSION : 16.0.1
 BLASLIB   : -mkl
 id        : ccgc

 Nodes     nprocs
 n033         3
 Number of processes for MPI-2 version of Molpro:   nprocs(total)=    4   nprocs(compute)=    3   nprocs(helper)=    1
 ga_uses_ma=false, calling ma_init with nominal heap.
 GA-space will be limited to   8.0 MW (determined by -G option)

 Using customized tuning parameters: mindgm=10; mindgv=16; mindgc=4; mindgr=1; noblas=0; mincuda=1000; minvec=7
 default implementation of scratch files=sf  

 ***,Frequencies for min3
 memory,1000,m
 gthresh,energy=1.0d-10,orbital=1.0d-10,oneint=1.0d-16,twoint=1.0d-16,optgrad=1.0d-6,compress=1.0d-13
 geomtyp=xyz
 
  geometry = {
  12
  arbitrary comment
     C    1.776964391707    0.711398808326   -0.047331391796
     C    0.491811976407   -0.059992870174   -0.196493901896
     C    0.450332819107   -1.535686371559    0.101422525407
     O   -0.560709196156    0.727013369647    0.254451252461
     O   -1.837863380598    0.092211025541   -0.120533574513
     H    2.585365778098    0.210835949029   -0.611439536817
     H    1.660616467391    1.742377875733   -0.426536431189
     H    2.095187470144    0.773486336485    1.017649645796
     H   -0.505161964435   -1.983006414564   -0.220078357175
     H    1.283300927397   -2.048942298006   -0.417425113581
     H    0.560728301202   -1.718923152065    1.194792268725
     H   -1.988916850864    0.551461684563   -0.966767840355
  }
 
 basis=cc-pvdz
 {rhf;maxit,200}
 {uccsd(t);maxit,200}

 Variables initialized (661), CPU time= 0.01 sec
 Commands  initialized (458), CPU time= 0.01 sec, 486 directives.
 Default parameters read. Elapsed time= 0.07 sec

 Checking input...
 Passed
1


                                         ***  PROGRAM SYSTEM MOLPRO  ***
                         Copyright, University College Cardiff Consultants Limited, 2008

                                    Version 2010.1 linked May 16 2016 07:17:05


 **********************************************************************************************************************************
 LABEL *   Frequencies for min3                                                          
 Linux-4.4.3/n033(x86_64) 64 bit mpp version                                             DATE: 07-Mar-20          TIME: 04:50:05  
 **********************************************************************************************************************************

 SHA1:             9e8077add272b0f3cad6f7df79ec5211205f459d
 **********************************************************************************************************************************

 THRESHOLDS:

 ZERO    =  1.00D-12  ONEINT  =  1.00D-16  TWOINT  =  1.00D-16  PREFAC  =  1.00D-14  LOCALI  =  1.00D-09  EORDER  =  1.00D-04
 ENERGY  =  1.00D-10  ETEST   =  0.00D+00  EDENS   =  0.00D+00  THRDEDEF=  1.00D-06  GRADIENT=  1.00D-02  STEP    =  1.00D-03
 ORBITAL =  1.00D-10  CIVEC   =  1.00D-05  COEFF   =  1.00D-04  PRINTCI =  5.00D-02  PUNCHCI =  9.90D+01  OPTGRAD =  1.00D-06
 OPTENERG=  1.00D-06  OPTSTEP =  3.00D-04  THRGRAD =  1.00D-10  COMPRESS=  1.00D-13  VARMIN  =  1.00D-07  VARMAX  =  1.00D-03
 THRDOUB =  0.00D+00  THRDIV  =  1.00D-05  THRRED  =  1.00D-07  THRPSP  =  1.00D+00  THRDC   =  1.00D-10  THRCS   =  1.00D-10
 THRNRM  =  1.00D-08  THREQ   =  0.00D+00  THRDE   =  1.00D+00  THRREF  =  1.00D-05  SPARFAC =  1.00D+00  THRDLP  =  1.00D-07
 THRDIA  =  1.00D-10  THRDLS  =  1.00D-07  THRGPS  =  0.00D+00  THRKEX  =  0.00D+00  THRDIS  =  2.00D-01  THRVAR  =  1.00D-10
 THRLOC  =  1.00D-06  THRGAP  =  1.00D-06  THRLOCT = -1.00D+00  THRGAPT = -1.00D+00  THRORB  =  1.00D-06  THRMLTP =  0.00D+00
 THRCPQCI=  1.00D-10  KEXTA   =  0.00D+00  THRCOARS=  0.00D+00  SYMTOL  =  1.00D-06  GRADTOL =  1.00D-06  THROVL  =  1.00D-08
 THRORTH =  1.00D-08  GRID    =  1.00D-06  GRIDMAX =  1.00D-03  DTMAX   =  0.00D+00

 SETTING GEOMTYP        =    XYZ

 Variable memory set to 1000000000 words,  buffer space   230000 words

 SETTING BASIS          =    CC-PVDZ


 Recomputing integrals since basis changed


 Using spherical harmonics

 Library entry C      S cc-pVDZ              selected for orbital group  1
 Library entry C      P cc-pVDZ              selected for orbital group  1
 Library entry C      D cc-pVDZ              selected for orbital group  1
 Library entry O      S cc-pVDZ              selected for orbital group  2
 Library entry O      P cc-pVDZ              selected for orbital group  2
 Library entry O      D cc-pVDZ              selected for orbital group  2
 Library entry H      S cc-pVDZ              selected for orbital group  3
 Library entry H      P cc-pVDZ              selected for orbital group  3

1PROGRAM * SEWARD (Integral evaluation for generally contracted gaussian basis sets)     Author: Roland Lindh, 1990

 Geometry written to block  1 of record 700


 Point group  C1  



 ATOMIC COORDINATES

 NR  ATOM    CHARGE       X              Y              Z

   1  C       6.00    3.357976046    1.344348918   -0.089443368
   2  C       6.00    0.929389944   -0.113370094   -0.371319661
   3  C       6.00    0.851005696   -2.902026666    0.191660797
   4  O       8.00   -1.059586820    1.373856163    0.480843181
   5  O       8.00   -3.473058456    0.174253585   -0.227775445
   6  H       1.00    4.885633270    0.398422202   -1.155453271
   7  H       1.00    3.138110333    3.292617003   -0.806037040
   8  H       1.00    3.959330513    1.461677342    1.923079128
   9  H       1.00   -0.954617765   -3.747339040   -0.415887823
  10  H       1.00    2.425087297   -3.871939802   -0.788819145
  11  H       1.00    1.059622923   -3.248293998    2.257830172
  12  H       1.00   -3.758508146    1.042111556   -1.826926451

 Bond lengths in Bohr (Angstrom)

 1-2  2.846476668  1-6  2.089232170  1-7  2.087485557  1-8  2.103720502  2-3  2.845996585
     ( 1.506290578)     ( 1.105574049)     ( 1.104649781)     ( 1.113240944)     ( 1.506036529)

  2- 4  2.625652684   3- 9  2.084213141   3-10  2.092798436   3-11  2.105345126   4- 5  2.786760133
       ( 1.389435559)       ( 1.102918093)       ( 1.107461235)       ( 1.114100658)       ( 1.474689950)

  5-12  1.841722814
       ( 0.974597738)

 Bond angles

  1-2-3  120.37817739   1-2-4  108.91074243   2-1-6  109.96608659   2-1-7  110.73849253

  2- 1- 8  111.54192125   2- 3- 9  111.32173486   2- 3-10  109.92094037   2- 3-11  110.64408427

  2- 4- 5  109.25026927   3- 2- 4  118.03070442   4- 5-12   98.75298358   6- 1- 7  108.93083126

  6- 1- 8  107.71936908   7- 1- 8  107.84569417   9- 3-10  109.09108125   9- 3-11  107.77108145

 10- 3-11  108.00081373

 NUCLEAR CHARGE:                   41
 NUMBER OF PRIMITIVE AOS:         184
 NUMBER OF SYMMETRY AOS:          179
 NUMBER OF CONTRACTIONS:          105   ( 105A   )
 NUMBER OF CORE ORBITALS:           5   (   5A   )
 NUMBER OF VALENCE ORBITALS:       27   (  27A   )


 NUCLEAR REPULSION ENERGY  183.22475031


 Eigenvalues of metric

         1 0.345E-02 0.435E-02 0.105E-01 0.141E-01 0.182E-01 0.214E-01 0.331E-01 0.346E-01


 Contracted 2-electron integrals neglected if value below      1.0D-16
 AO integral compression algorithm  1   Integral accuracy      1.0D-16

     127.402 MB (compressed) written to integral file ( 93.4%)

     Node minimum: 34.079 MB, node maximum: 55.837 MB


 NUMBER OF SORTED TWO-ELECTRON INTEGRALS:    5164320.     BUFFER LENGTH:  32768
 NUMBER OF SEGMENTS:   1  SEGMENT LENGTH:    5164320      RECORD LENGTH: 524288

 Memory used in sort:       5.72 MW

 SORT1 READ    17075251. AND WROTE     5135863. INTEGRALS IN     15 RECORDS. CPU TIME:     0.36 SEC, REAL TIME:     0.40 SEC
 SORT2 READ    15396517. AND WROTE    15487395. INTEGRALS IN    429 RECORDS. CPU TIME:     0.13 SEC, REAL TIME:     0.16 SEC

 Node minimum:     5160610.  Node maximum:     5164320. integrals

 OPERATOR DM      FOR CENTER  0  COORDINATES:    0.000000    0.000000    0.000000


 **********************************************************************************************************************************
 DATASETS  * FILE   NREC   LENGTH (MB)   RECORD NAMES
              1      18        3.17       500      610      700      900      950      970     1000      129      960     1100   
                                          VAR    BASINP    GEOM    SYMINP    ZMAT    AOBASIS   BASIS     P2S    ABASIS      S 
                                         1400     1410     1200     1210     1080     1600     1650     1700   
                                           T        V       H0       H01     AOSYM     SMH    MOLCAS    OPER   

 PROGRAMS   *        TOTAL       INT
 CPU TIMES  *         1.81      1.72
 REAL TIME  *         2.08 SEC
 DISK USED  *       317.23 MB      
 GA USED    *         0.00 MB       (max)       0.00 MB       (current)
 **********************************************************************************************************************************

1PROGRAM * RHF-SCF (OPEN SHELL)       Authors: W. Meyer, H.-J. Werner


 NUMBER OF ELECTRONS:      21+   20-    SPACE SYMMETRY=1    SPIN SYMMETRY: Doublet 
 CONVERGENCE THRESHOLDS:    1.00E-10 (Density)    1.00E-11 (Energy)
 MAX. NUMBER OF ITERATIONS:      200
 INTERPOLATION TYPE:            DIIS
 INTERPOLATION STEPS:              2 (START)      1 (STEP)
 LEVEL SHIFTS:                 -0.30 (CLOSED)  0.00 (OPEN) 



 Orbital guess generated from atomic densities. Full valence occupancy:   32

 Molecular orbital dump at record        2100.2

 ITERATION    DDIFF          GRAD             ENERGY        2-EL.EN.            DIPOLE MOMENTS         DIIS
    1      0.000D+00      0.000D+00      -267.17821904    555.828369    0.56996    0.04822   -0.74967    0
    2      0.000D+00      0.617D-02      -267.24887304    555.745081    0.41320   -0.13078   -0.59864    1
    3      0.927D-02      0.214D-02      -267.26105159    555.663812    0.39271   -0.05855   -0.62578    2
    4      0.336D-02      0.912D-03      -267.26466121    555.815722    0.37798   -0.09845   -0.64208    3
    5      0.186D-02      0.364D-03      -267.26523105    555.786944    0.38045   -0.09185   -0.63501    4
    6      0.793D-03      0.110D-03      -267.26530764    555.773219    0.37869   -0.09162   -0.63773    5
    7      0.277D-03      0.511D-04      -267.26532781    555.770205    0.37797   -0.09134   -0.63722    6
    8      0.144D-03      0.273D-04      -267.26533387    555.768256    0.37824   -0.09145   -0.63743    7
    9      0.924D-04      0.115D-04      -267.26533478    555.768579    0.37842   -0.09141   -0.63719    8
   10      0.366D-04      0.501D-05      -267.26533494    555.769187    0.37868   -0.09143   -0.63725    9
   11      0.147D-04      0.197D-05      -267.26533497    555.769029    0.37873   -0.09142   -0.63726    9
   12      0.651D-05      0.671D-06      -267.26533497    555.769163    0.37875   -0.09142   -0.63725    9
   13      0.227D-05      0.227D-06      -267.26533497    555.769079    0.37875   -0.09142   -0.63725    9
   14      0.632D-06      0.760D-07      -267.26533497    555.769088    0.37875   -0.09142   -0.63725    9
   15      0.193D-06      0.302D-07      -267.26533497    555.769084    0.37876   -0.09142   -0.63725    9
   16      0.830D-07      0.146D-07      -267.26533497    555.769085    0.37876   -0.09142   -0.63725    9
   17      0.378D-07      0.757D-08      -267.26533497    555.769085    0.37876   -0.09142   -0.63725    9
   18      0.225D-07      0.343D-08      -267.26533497    555.769085    0.37876   -0.09142   -0.63725    9
   19      0.115D-07      0.134D-08      -267.26533497    555.769085    0.37876   -0.09142   -0.63725    9
   20      0.445D-08      0.570D-09      -267.26533497    555.769085    0.37876   -0.09142   -0.63725    9
   21      0.167D-08      0.288D-09      -267.26533497    555.769085    0.37876   -0.09142   -0.63725    9
   22      0.758D-09      0.162D-09      -267.26533497    555.769085    0.37876   -0.09142   -0.63725    9
   23      0.448D-09      0.800D-10      -267.26533497    555.769085    0.37876   -0.09142   -0.63725    9
   24      0.265D-09      0.318D-10      -267.26533497    555.769085    0.37876   -0.09142   -0.63725    9
   25      0.937D-10      0.130D-10      -267.26533497    555.769085    0.37876   -0.09142   -0.63725    0

 Final alpha occupancy:  21
 Final beta  occupancy:  20

 !RHF STATE 1.1 Energy               -267.265334969221
 Nuclear energy                       183.22475031
 One-electron energy                 -728.37462793
 Two-electron energy                  277.88454265
 Virial quotient                       -1.00156524
 !RHF STATE 1.1 Dipole moment           0.37875608    -0.09142366    -0.63725302
 Dipole moment /Debye                   0.96263888    -0.23236054    -1.61962954

 Orbital energies:

         1.1          2.1          3.1          4.1          5.1          6.1          7.1          8.1          9.1         10.1
    -20.630496   -20.628850   -11.279237   -11.237854   -11.232422    -1.470178    -1.240767    -1.023192    -0.945245    -0.768422

        11.1         12.1         13.1         14.1         15.1         16.1         17.1         18.1         19.1         20.1
     -0.704556    -0.643057    -0.626798    -0.588780    -0.545028    -0.543231    -0.538868    -0.516834    -0.493010    -0.469819

        21.1         22.1         23.1
     -0.352259     0.181225     0.183498


 **********************************************************************************************************************************
 DATASETS  * FILE   NREC   LENGTH (MB)   RECORD NAMES
              1      18        3.17       500      610      700      900      950      970     1000      129      960     1100   
                                          VAR    BASINP    GEOM    SYMINP    ZMAT    AOBASIS   BASIS     P2S    ABASIS      S 
                                         1400     1410     1200     1210     1080     1600     1650     1700   
                                           T        V       H0       H01     AOSYM     SMH    MOLCAS    OPER   

              2       3        0.77       700     1000     2100   
                                         GEOM     BASIS     RHF  

 PROGRAMS   *        TOTAL       RHF       INT
 CPU TIMES  *         3.79      1.98      1.72
 REAL TIME  *         4.20 SEC
 DISK USED  *       333.80 MB      
 SF USED    *         0.04 MB      
 GA USED    *         0.00 MB       (max)       0.00 MB       (current)
 **********************************************************************************************************************************


1PROGRAM * CCSD (Unrestricted open-shell coupled cluster)     Authors: C. Hampel, H.-J. Werner, 1991, M. Deegan, P.J. Knowles, 1992


 Convergence thresholds:  THRVAR = 1.00D-08  THRDEN = 1.00D-10

 CCSD(T)     terms to be evaluated (factor= 1.000)


 Number of core orbitals:           5 (   5 )
 Number of closed-shell orbitals:  15 (  15 )
 Number of active  orbitals:        1 (   1 )
 Number of external orbitals:      84 (  84 )

 Memory could be reduced to 24.91 Mwords without degradation in triples

 Number of N-1 electron functions:              31
 Number of N-2 electron functions:             465
 Number of singly external CSFs:              2635
 Number of doubly external CSFs:           2537250
 Total number of CSFs:                     2539885

 Molecular orbitals read from record     2100.2  Type=RHF/CANONICAL (state 1.1)

 Integral transformation finished. Total CPU:   1.60 sec, npass=  1  Memory used:  12.63 MW

 Starting RMP2 calculation

 ITER.      SQ.NORM     CORR.ENERGY   TOTAL ENERGY   ENERGY CHANGE        DEN1      VAR(S)    VAR(P)  DIIS     TIME
   1      1.24306952    -0.78641893  -268.05175390    -0.78641893    -0.00305056  0.20D-04  0.11D-02  1  1     2.07
   2      1.24571198    -0.78970877  -268.05504374    -0.00328984    -0.00000475  0.54D-06  0.19D-05  2  2     2.52
   3      1.24577758    -0.78975086  -268.05508583    -0.00004209    -0.00000003  0.16D-07  0.68D-08  3  3     3.00
   4      1.24577853    -0.78975086  -268.05508583    -0.00000000    -0.00000000  0.27D-09  0.38D-10  4  4     3.51
   5      1.24577861    -0.78975090  -268.05508587    -0.00000003    -0.00000000  0.25D-11  0.65D-12  5  5     4.07
   6      1.24577863    -0.78975090  -268.05508587    -0.00000001    -0.00000000  0.28D-13  0.87D-14  6  6     4.67
   7      1.24577863    -0.78975090  -268.05508587     0.00000000    -0.00000000  0.47D-15  0.12D-15  6  1     5.26
   8      1.24577863    -0.78975090  -268.05508587     0.00000000    -0.00000000  0.60D-17  0.13D-17  6  2     5.85

 Norm of t1 vector:      0.03893602      S-energy:    -0.00227199      T1 diagnostic:  0.00055042
 Norm of t2 vector:      0.49422931      P-energy:    -0.78747891
                                         Alpha-Beta:  -0.59345168
                                         Alpha-Alpha: -0.10094458
                                         Beta-Beta:   -0.09308264

 Spin contamination <S**2-Sz**2-Sz>     0.00104025
  Reference energy                   -267.265334969222
  RHF-RMP2 correlation energy          -0.789750901695
 !RHF-RMP2 energy                    -268.055085870917

 Starting UCCSD calculation

 ITER.      SQ.NORM     CORR.ENERGY   TOTAL ENERGY   ENERGY CHANGE        DEN1      VAR(S)    VAR(P)  DIIS     TIME
   1      1.26284874    -0.80908701  -268.07442198    -0.80908701    -0.02516140  0.38D-02  0.59D-02  1  1    15.60
   2      1.29163602    -0.83650283  -268.10183780    -0.02741582    -0.00201200  0.22D-03  0.66D-03  2  2    25.25
   3      1.30158379    -0.84100370  -268.10633867    -0.00450087    -0.00032474  0.19D-03  0.56D-04  3  3    35.13
   4      1.30649946    -0.84248157  -268.10781654    -0.00147787    -0.00007211  0.43D-04  0.14D-04  4  4    44.74
   5      1.30923021    -0.84286984  -268.10820481    -0.00038827    -0.00002368  0.19D-04  0.32D-05  5  5    54.62
   6      1.31117010    -0.84307437  -268.10840934    -0.00020453    -0.00000646  0.42D-05  0.12D-05  6  6    64.41
   7      1.31212012    -0.84313320  -268.10846817    -0.00005882    -0.00000208  0.14D-05  0.37D-06  6  2    74.26
   8      1.31256220    -0.84317591  -268.10851088    -0.00004271    -0.00000065  0.45D-06  0.11D-06  6  1    84.05
   9      1.31274781    -0.84318051  -268.10851548    -0.00000460    -0.00000022  0.15D-06  0.35D-07  6  4    93.84
  10      1.31281115    -0.84318345  -268.10851842    -0.00000294    -0.00000005  0.35D-07  0.95D-08  6  3   103.61
  11      1.31284068    -0.84318219  -268.10851716     0.00000126    -0.00000002  0.13D-07  0.28D-08  6  5   113.47
  12      1.31285108    -0.84318192  -268.10851689     0.00000026    -0.00000000  0.26D-08  0.96D-09  6  6   123.26
  13      1.31284993    -0.84318101  -268.10851597     0.00000092    -0.00000000  0.96D-09  0.29D-09  6  2   132.87
  14      1.31284472    -0.84318016  -268.10851513     0.00000085    -0.00000000  0.21D-09  0.68D-10  6  1   142.64
  15      1.31284065    -0.84317957  -268.10851454     0.00000059    -0.00000000  0.78D-10  0.19D-10  6  4   152.38
  16      1.31283746    -0.84317919  -268.10851416     0.00000038    -0.00000000  0.28D-10  0.63D-11  6  3   162.15
  17      1.31283526    -0.84317895  -268.10851392     0.00000024    -0.00000000  0.10D-10  0.24D-11  6  5   171.89
  18      1.31283435    -0.84317889  -268.10851386     0.00000006    -0.00000000  0.41D-11  0.87D-12  6  6   181.67
  19      1.31283374    -0.84317886  -268.10851383     0.00000003    -0.00000000  0.16D-11  0.37D-12  6  2   191.45
  20      1.31283342    -0.84317884  -268.10851381     0.00000001    -0.00000000  0.60D-12  0.13D-12  6  1   201.24
  21      1.31283326    -0.84317883  -268.10851380     0.00000001    -0.00000000  0.28D-12  0.58D-13  6  4   211.05
  22      1.31283313    -0.84317883  -268.10851379     0.00000001    -0.00000000  0.74D-13  0.21D-13  6  3   221.01
  23      1.31283307    -0.84317882  -268.10851379     0.00000000    -0.00000000  0.21D-13  0.63D-14  6  5   230.91
  24      1.31283307    -0.84317882  -268.10851379    -0.00000000    -0.00000000  0.68D-14  0.23D-14  6  6   240.86
  25      1.31283307    -0.84317883  -268.10851379    -0.00000000    -0.00000000  0.21D-14  0.53D-15  6  2   250.63
  26      1.31283308    -0.84317883  -268.10851379    -0.00000000    -0.00000000  0.77D-15  0.15D-15  6  1   260.33
  27      1.31283309    -0.84317883  -268.10851380    -0.00000000    -0.00000000  0.20D-15  0.63D-16  6  3   270.08
  28      1.31283309    -0.84317883  -268.10851380    -0.00000000    -0.00000000  0.30D-16  0.11D-16  6  4   279.84
  29      1.31283310    -0.84317883  -268.10851380    -0.00000000    -0.00000000  0.71D-17  0.29D-17  6  5   289.58
  30      1.31283310    -0.84317883  -268.10851380    -0.00000000    -0.00000000  0.15D-17  0.54D-18  6  6   299.42
  31      1.31283310    -0.84317883  -268.10851380    -0.00000000    -0.00000000  0.35D-18  0.10D-18  6  2   309.24

 Norm of t1 vector:      0.13873438      S-energy:    -0.00282178      T1 diagnostic:  0.01617107
                                                                       D1 diagnostic:  0.06281413
 Norm of t2 vector:      0.54183565      P-energy:    -0.84035704
                                         Alpha-Beta:  -0.66491204
                                         Alpha-Alpha: -0.09147422
                                         Beta-Beta:   -0.08397079

 Spin contamination <S**2-Sz**2-Sz>     0.00217290

 Memory could be reduced to 28.85 Mwords without degradation in triples
 

 RESULTS
 =======

  Reference energy                   -267.265334969222
  UCCSD singles energy                 -0.002821784224
  UCCSD pair energy                    -0.840357042632
  UCCSD correlation energy             -0.843178826857
  Triples (T) contribution             -0.024980013256
  Total correlation energy             -0.868158840113
 
  RHF-UCCSD energy                   -268.108513796079
  RHF-UCCSD[T] energy                -268.134829787801
  RHF-UCCSD-T energy                 -268.133072327734
 !RHF-UCCSD(T) energy                -268.133493809335

 Program statistics:

 Available memory in ccsd:               999997692
 Min. memory needed in ccsd:               7337057
 Max. memory used in ccsd:                10523002
 Max. memory used in cckext:              10867977 (31 integral passes)
 Max. memory used in cckint:              12633073 ( 1 integral passes)



 **********************************************************************************************************************************
 DATASETS  * FILE   NREC   LENGTH (MB)   RECORD NAMES
              1      18        3.17       500      610      700      900      950      970     1000      129      960     1100   
                                          VAR    BASINP    GEOM    SYMINP    ZMAT    AOBASIS   BASIS     P2S    ABASIS      S 
                                         1400     1410     1200     1210     1080     1600     1650     1700   
                                           T        V       H0       H01     AOSYM     SMH    MOLCAS    OPER   

              2       3        0.77       700     1000     2100   
                                         GEOM     BASIS     RHF  

 PROGRAMS   *        TOTAL  UCCSD(T)       RHF       INT
 CPU TIMES  *       391.26    387.47      1.98      1.72
 REAL TIME  *       406.79 SEC
 DISK USED  *         1.30 GB      
 SF USED    *       553.73 MB      
 GA USED    *         0.00 MB       (max)       0.00 MB       (current)
 **********************************************************************************************************************************

        UCCSD(T)        RHF-SCF 
   -268.13349381   -267.26533497
 **********************************************************************************************************************************
 Variable memory released
