
 Primary working directories    : /tmp/320938.860.gen4.q
 Secondary working directories  : /tmp/320938.860.gen4.q
 Wavefunction directory         : /home/vulcan/mel64643/wfu/
 Main file repository           : /tmp/320938.860.gen4.q/

 ARCHNAME  : Linux/x86_64
 FC        : /opt/intel/compilers_and_libraries_2016.1.150/linux/bin/intel64/ifort
 FCVERSION : 16.0.1
 BLASLIB   : -mkl
 id        : ccgc

 Nodes     nprocs
 n037         3
 Number of processes for MPI-2 version of Molpro:   nprocs(total)=    4   nprocs(compute)=    3   nprocs(helper)=    1
 ga_uses_ma=false, calling ma_init with nominal heap.
 GA-space will be limited to   8.0 MW (determined by -G option)

 Using customized tuning parameters: mindgm=10; mindgv=16; mindgc=4; mindgr=1; noblas=0; mincuda=1000; minvec=7
 default implementation of scratch files=sf  

 ***,Frequencies for min3
 memory,1000,m
 gthresh,energy=1.0d-10,orbital=1.0d-10,oneint=1.0d-16,twoint=1.0d-16,optgrad=1.0d-6,compress=1.0d-13
 geomtyp=xyz
 
  geometry = {
  12
  arbitrary comment
     C    1.776964391707    0.711398808326   -0.047841264117
     C    0.491851038607   -0.059957565567   -0.196226120821
     C    0.450320560748   -1.536305384832    0.101446886164
     O   -0.560818098403    0.726705236192    0.254596058084
     O   -1.837823306690    0.092580483863   -0.120670913968
     H    2.585479247887    0.212045348873   -0.610711616162
     H    1.660412375076    1.743407206212   -0.425905671068
     H    2.094881153458    0.774517878357    1.018312658844
     H   -0.504720918762   -1.982386438079   -0.220068573818
     H    1.282086263824   -2.046706796107   -0.416797713968
     H    0.561644516180   -1.718792568412    1.194980787241
     H   -1.987889301787    0.551182199276   -0.967141249534
  }
 
 basis=cc-pvdz
 {rhf;maxit,200}
 {uccsd(t);maxit,200}

 Variables initialized (661), CPU time= 0.00 sec
 Commands  initialized (458), CPU time= 0.01 sec, 486 directives.
 Default parameters read. Elapsed time= 0.07 sec

 Checking input...
 Passed
1


                                         ***  PROGRAM SYSTEM MOLPRO  ***
                         Copyright, University College Cardiff Consultants Limited, 2008

                                    Version 2010.1 linked May 16 2016 07:17:05


 **********************************************************************************************************************************
 LABEL *   Frequencies for min3                                                          
 Linux-4.4.3/n037(x86_64) 64 bit mpp version                                             DATE: 07-Mar-20          TIME: 06:02:35  
 **********************************************************************************************************************************

 SHA1:             9e8077add272b0f3cad6f7df79ec5211205f459d
 **********************************************************************************************************************************

 THRESHOLDS:

 ZERO    =  1.00D-12  ONEINT  =  1.00D-16  TWOINT  =  1.00D-16  PREFAC  =  1.00D-14  LOCALI  =  1.00D-09  EORDER  =  1.00D-04
 ENERGY  =  1.00D-10  ETEST   =  0.00D+00  EDENS   =  0.00D+00  THRDEDEF=  1.00D-06  GRADIENT=  1.00D-02  STEP    =  1.00D-03
 ORBITAL =  1.00D-10  CIVEC   =  1.00D-05  COEFF   =  1.00D-04  PRINTCI =  5.00D-02  PUNCHCI =  9.90D+01  OPTGRAD =  1.00D-06
 OPTENERG=  1.00D-06  OPTSTEP =  3.00D-04  THRGRAD =  1.00D-10  COMPRESS=  1.00D-13  VARMIN  =  1.00D-07  VARMAX  =  1.00D-03
 THRDOUB =  0.00D+00  THRDIV  =  1.00D-05  THRRED  =  1.00D-07  THRPSP  =  1.00D+00  THRDC   =  1.00D-10  THRCS   =  1.00D-10
 THRNRM  =  1.00D-08  THREQ   =  0.00D+00  THRDE   =  1.00D+00  THRREF  =  1.00D-05  SPARFAC =  1.00D+00  THRDLP  =  1.00D-07
 THRDIA  =  1.00D-10  THRDLS  =  1.00D-07  THRGPS  =  0.00D+00  THRKEX  =  0.00D+00  THRDIS  =  2.00D-01  THRVAR  =  1.00D-10
 THRLOC  =  1.00D-06  THRGAP  =  1.00D-06  THRLOCT = -1.00D+00  THRGAPT = -1.00D+00  THRORB  =  1.00D-06  THRMLTP =  0.00D+00
 THRCPQCI=  1.00D-10  KEXTA   =  0.00D+00  THRCOARS=  0.00D+00  SYMTOL  =  1.00D-06  GRADTOL =  1.00D-06  THROVL  =  1.00D-08
 THRORTH =  1.00D-08  GRID    =  1.00D-06  GRIDMAX =  1.00D-03  DTMAX   =  0.00D+00

 SETTING GEOMTYP        =    XYZ

 Variable memory set to 1000000000 words,  buffer space   230000 words

 SETTING BASIS          =    CC-PVDZ


 Recomputing integrals since basis changed


 Using spherical harmonics

 Library entry C      S cc-pVDZ              selected for orbital group  1
 Library entry C      P cc-pVDZ              selected for orbital group  1
 Library entry C      D cc-pVDZ              selected for orbital group  1
 Library entry O      S cc-pVDZ              selected for orbital group  2
 Library entry O      P cc-pVDZ              selected for orbital group  2
 Library entry O      D cc-pVDZ              selected for orbital group  2
 Library entry H      S cc-pVDZ              selected for orbital group  3
 Library entry H      P cc-pVDZ              selected for orbital group  3

1PROGRAM * SEWARD (Integral evaluation for generally contracted gaussian basis sets)     Author: Roland Lindh, 1990

 Geometry written to block  1 of record 700


 Point group  C1  



 ATOMIC COORDINATES

 NR  ATOM    CHARGE       X              Y              Z

   1  C       6.00    3.357976046    1.344348918   -0.090406887
   2  C       6.00    0.929463760   -0.113303378   -0.370813628
   3  C       6.00    0.850982531   -2.903196432    0.191706832
   4  O       8.00   -1.059792616    1.373273875    0.481116824
   5  O       8.00   -3.472982728    0.174951760   -0.228034979
   6  H       1.00    4.885847697    0.400707637   -1.154077700
   7  H       1.00    3.137724654    3.294562155   -0.804845076
   8  H       1.00    3.958751658    1.463626674    1.924332041
   9  H       1.00   -0.953784309   -3.746167455   -0.415869335
  10  H       1.00    2.422791915   -3.867715316   -0.787633532
  11  H       1.00    1.061354319   -3.248047231    2.258186420
  12  H       1.00   -3.756566360    1.041583405   -1.827632092

 Bond lengths in Bohr (Angstrom)

 1-2  2.846234368  1-6  2.087162248  1-7  2.088603426  1-8  2.105785238  2-3  2.847119917
     ( 1.506162359)     ( 1.104478693)     ( 1.105241332)     ( 1.114333555)     ( 1.506630971)

  2- 4  2.625421557   3- 9  2.082530262   3-10  2.088058660   3-11  2.105591663   4- 5  2.786100983
       ( 1.389313252)       ( 1.102027552)       ( 1.104953054)       ( 1.114231120)       ( 1.474341142)

  5-12  1.841244418
       ( 0.974344582)

 Bond angles

  1-2-3  120.39075208   1-2-4  108.93760697   2-1-6  110.05035187   2-1-7  110.76420719

  2- 1- 8  111.51188141   2- 3- 9  111.27792260   2- 3-10  109.82936881   2- 3-11  110.58752380

  2- 4- 5  109.27757008   3- 2- 4  118.02427262   4- 5-12   98.74794164   6- 1- 7  108.96742208

  6- 1- 8  107.71924046   7- 1- 8  107.72636585   9- 3-10  109.18054452   9- 3-11  107.85566193

 10- 3-11  108.02581235

 NUCLEAR CHARGE:                   41
 NUMBER OF PRIMITIVE AOS:         184
 NUMBER OF SYMMETRY AOS:          179
 NUMBER OF CONTRACTIONS:          105   ( 105A   )
 NUMBER OF CORE ORBITALS:           5   (   5A   )
 NUMBER OF VALENCE ORBITALS:       27   (  27A   )


 NUCLEAR REPULSION ENERGY  183.23577918


 Eigenvalues of metric

         1 0.345E-02 0.435E-02 0.105E-01 0.141E-01 0.182E-01 0.214E-01 0.331E-01 0.345E-01


 Contracted 2-electron integrals neglected if value below      1.0D-16
 AO integral compression algorithm  1   Integral accuracy      1.0D-16

     127.402 MB (compressed) written to integral file ( 93.4%)

     Node minimum: 30.147 MB, node maximum: 49.283 MB


 NUMBER OF SORTED TWO-ELECTRON INTEGRALS:    5164320.     BUFFER LENGTH:  32768
 NUMBER OF SEGMENTS:   1  SEGMENT LENGTH:    5164320      RECORD LENGTH: 524288

 Memory used in sort:       5.72 MW

 SORT1 READ    17075251. AND WROTE     5135922. INTEGRALS IN     15 RECORDS. CPU TIME:     0.32 SEC, REAL TIME:     0.37 SEC
 SORT2 READ    15396658. AND WROTE    15487395. INTEGRALS IN    345 RECORDS. CPU TIME:     0.12 SEC, REAL TIME:     0.16 SEC

 Node minimum:     5160610.  Node maximum:     5164320. integrals

 OPERATOR DM      FOR CENTER  0  COORDINATES:    0.000000    0.000000    0.000000


 **********************************************************************************************************************************
 DATASETS  * FILE   NREC   LENGTH (MB)   RECORD NAMES
              1      18        3.17       500      610      700      900      950      970     1000      129      960     1100   
                                          VAR    BASINP    GEOM    SYMINP    ZMAT    AOBASIS   BASIS     P2S    ABASIS      S 
                                         1400     1410     1200     1210     1080     1600     1650     1700   
                                           T        V       H0       H01     AOSYM     SMH    MOLCAS    OPER   

 PROGRAMS   *        TOTAL       INT
 CPU TIMES  *         1.53      1.43
 REAL TIME  *         1.81 SEC
 DISK USED  *       316.28 MB      
 GA USED    *         0.00 MB       (max)       0.00 MB       (current)
 **********************************************************************************************************************************

1PROGRAM * RHF-SCF (OPEN SHELL)       Authors: W. Meyer, H.-J. Werner


 NUMBER OF ELECTRONS:      21+   20-    SPACE SYMMETRY=1    SPIN SYMMETRY: Doublet 
 CONVERGENCE THRESHOLDS:    1.00E-10 (Density)    1.00E-11 (Energy)
 MAX. NUMBER OF ITERATIONS:      200
 INTERPOLATION TYPE:            DIIS
 INTERPOLATION STEPS:              2 (START)      1 (STEP)
 LEVEL SHIFTS:                 -0.30 (CLOSED)  0.00 (OPEN) 



 Orbital guess generated from atomic densities. Full valence occupancy:   32

 Molecular orbital dump at record        2100.2

 ITERATION    DDIFF          GRAD             ENERGY        2-EL.EN.            DIPOLE MOMENTS         DIIS
    1      0.000D+00      0.000D+00      -267.17830010    555.844132    0.57047    0.05076   -0.74817    0
    2      0.000D+00      0.617D-02      -267.24896736    555.764694    0.41411   -0.13021   -0.59874    1
    3      0.927D-02      0.214D-02      -267.26114226    555.682625    0.39369   -0.05857   -0.62625    2
    4      0.336D-02      0.912D-03      -267.26474978    555.834938    0.37906   -0.09876   -0.64280    3
    5      0.186D-02      0.363D-03      -267.26531906    555.806323    0.38159   -0.09234   -0.63588    4
    6      0.792D-03      0.110D-03      -267.26539560    555.792582    0.37985   -0.09216   -0.63864    5
    7      0.277D-03      0.511D-04      -267.26541574    555.789587    0.37914   -0.09191   -0.63814    6
    8      0.144D-03      0.272D-04      -267.26542179    555.787639    0.37941   -0.09203   -0.63836    7
    9      0.924D-04      0.115D-04      -267.26542270    555.787957    0.37959   -0.09199   -0.63812    8
   10      0.365D-04      0.501D-05      -267.26542286    555.788566    0.37985   -0.09200   -0.63818    9
   11      0.146D-04      0.196D-05      -267.26542289    555.788407    0.37990   -0.09199   -0.63819    9
   12      0.651D-05      0.670D-06      -267.26542289    555.788542    0.37992   -0.09199   -0.63818    9
   13      0.227D-05      0.226D-06      -267.26542289    555.788457    0.37992   -0.09199   -0.63818    9
   14      0.631D-06      0.756D-07      -267.26542289    555.788466    0.37992   -0.09199   -0.63818    9
   15      0.192D-06      0.299D-07      -267.26542289    555.788462    0.37992   -0.09199   -0.63818    9
   16      0.823D-07      0.144D-07      -267.26542289    555.788464    0.37992   -0.09200   -0.63818    9
   17      0.372D-07      0.746D-08      -267.26542289    555.788464    0.37993   -0.09200   -0.63818    9
   18      0.221D-07      0.340D-08      -267.26542289    555.788464    0.37993   -0.09200   -0.63818    9
   19      0.114D-07      0.133D-08      -267.26542289    555.788464    0.37992   -0.09200   -0.63818    9
   20      0.443D-08      0.564D-09      -267.26542289    555.788464    0.37992   -0.09200   -0.63818    9
   21      0.165D-08      0.285D-09      -267.26542289    555.788464    0.37992   -0.09200   -0.63818    9
   22      0.749D-09      0.161D-09      -267.26542289    555.788464    0.37992   -0.09200   -0.63818    9
   23      0.443D-09      0.791D-10      -267.26542289    555.788464    0.37992   -0.09200   -0.63818    9
   24      0.262D-09      0.315D-10      -267.26542289    555.788464    0.37992   -0.09200   -0.63818    9
   25      0.927D-10      0.128D-10      -267.26542289    555.788464    0.37992   -0.09200   -0.63818    0

 Final alpha occupancy:  21
 Final beta  occupancy:  20

 !RHF STATE 1.1 Energy               -267.265422890076
 Nuclear energy                       183.23577918
 One-electron energy                 -728.39543401
 Two-electron energy                  277.89423194
 Virial quotient                       -1.00155053
 !RHF STATE 1.1 Dipole moment           0.37992491    -0.09199512    -0.63818125
 Dipole moment /Debye                   0.96560955    -0.23381296    -1.62198870

 Orbital energies:

         1.1          2.1          3.1          4.1          5.1          6.1          7.1          8.1          9.1         10.1
    -20.630430   -20.628829   -11.279203   -11.237921   -11.232133    -1.470342    -1.240775    -1.023219    -0.945361    -0.768556

        11.1         12.1         13.1         14.1         15.1         16.1         17.1         18.1         19.1         20.1
     -0.704653    -0.643089    -0.626849    -0.588657    -0.545198    -0.543488    -0.538983    -0.516988    -0.493024    -0.469733

        21.1         22.1         23.1
     -0.352111     0.181294     0.183585


 **********************************************************************************************************************************
 DATASETS  * FILE   NREC   LENGTH (MB)   RECORD NAMES
              1      18        3.17       500      610      700      900      950      970     1000      129      960     1100   
                                          VAR    BASINP    GEOM    SYMINP    ZMAT    AOBASIS   BASIS     P2S    ABASIS      S 
                                         1400     1410     1200     1210     1080     1600     1650     1700   
                                           T        V       H0       H01     AOSYM     SMH    MOLCAS    OPER   

              2       3        0.77       700     1000     2100   
                                         GEOM     BASIS     RHF  

 PROGRAMS   *        TOTAL       RHF       INT
 CPU TIMES  *         3.42      1.89      1.43
 REAL TIME  *         3.85 SEC
 DISK USED  *       332.85 MB      
 SF USED    *         0.04 MB      
 GA USED    *         0.00 MB       (max)       0.00 MB       (current)
 **********************************************************************************************************************************


1PROGRAM * CCSD (Unrestricted open-shell coupled cluster)     Authors: C. Hampel, H.-J. Werner, 1991, M. Deegan, P.J. Knowles, 1992


 Convergence thresholds:  THRVAR = 1.00D-08  THRDEN = 1.00D-10

 CCSD(T)     terms to be evaluated (factor= 1.000)


 Number of core orbitals:           5 (   5 )
 Number of closed-shell orbitals:  15 (  15 )
 Number of active  orbitals:        1 (   1 )
 Number of external orbitals:      84 (  84 )

 Memory could be reduced to 24.91 Mwords without degradation in triples

 Number of N-1 electron functions:              31
 Number of N-2 electron functions:             465
 Number of singly external CSFs:              2635
 Number of doubly external CSFs:           2537250
 Total number of CSFs:                     2539885

 Molecular orbitals read from record     2100.2  Type=RHF/CANONICAL (state 1.1)

 Integral transformation finished. Total CPU:   1.39 sec, npass=  1  Memory used:  12.63 MW

 Starting RMP2 calculation

 ITER.      SQ.NORM     CORR.ENERGY   TOTAL ENERGY   ENERGY CHANGE        DEN1      VAR(S)    VAR(P)  DIIS     TIME
   1      1.24299739    -0.78634725  -268.05177014    -0.78634725    -0.00304903  0.20D-04  0.11D-02  1  1     1.83
   2      1.24563787    -0.78963540  -268.05505829    -0.00328815    -0.00000475  0.54D-06  0.19D-05  2  2     2.19
   3      1.24570342    -0.78967746  -268.05510035    -0.00004206    -0.00000003  0.16D-07  0.68D-08  3  3     2.58
   4      1.24570438    -0.78967747  -268.05510036    -0.00000000    -0.00000000  0.27D-09  0.38D-10  4  4     2.99
   5      1.24570446    -0.78967750  -268.05510039    -0.00000003    -0.00000000  0.25D-11  0.65D-12  5  5     3.44
   6      1.24570447    -0.78967750  -268.05510040    -0.00000001    -0.00000000  0.28D-13  0.87D-14  6  6     3.91
   7      1.24570448    -0.78967750  -268.05510039     0.00000000    -0.00000000  0.47D-15  0.12D-15  6  1     4.39
   8      1.24570448    -0.78967750  -268.05510039     0.00000000    -0.00000000  0.60D-17  0.13D-17  6  2     4.84

 Norm of t1 vector:      0.03895261      S-energy:    -0.00227336      T1 diagnostic:  0.00055056
 Norm of t2 vector:      0.49415298      P-energy:    -0.78740414
                                         Alpha-Beta:  -0.59338777
                                         Alpha-Alpha: -0.10094065
                                         Beta-Beta:   -0.09307572

 Spin contamination <S**2-Sz**2-Sz>     0.00104141
  Reference energy                   -267.265422890077
  RHF-RMP2 correlation energy          -0.789677504731
 !RHF-RMP2 energy                    -268.055100394808

 Starting UCCSD calculation

 ITER.      SQ.NORM     CORR.ENERGY   TOTAL ENERGY   ENERGY CHANGE        DEN1      VAR(S)    VAR(P)  DIIS     TIME
   1      1.26277763    -0.80902923  -268.07445212    -0.80902923    -0.02515042  0.38D-02  0.59D-02  1  1    13.60
   2      1.29154539    -0.83643382  -268.10185671    -0.02740458    -0.00201009  0.22D-03  0.66D-03  2  2    23.25
   3      1.30148314    -0.84093019  -268.10635308    -0.00449637    -0.00032455  0.19D-03  0.56D-04  3  3    33.00
   4      1.30639497    -0.84240670  -268.10782959    -0.00147652    -0.00007211  0.43D-04  0.14D-04  4  4    42.58
   5      1.30912621    -0.84279495  -268.10821784    -0.00038824    -0.00002368  0.19D-04  0.32D-05  5  5    52.36
   6      1.31106715    -0.84299954  -268.10842243    -0.00020459    -0.00000646  0.42D-05  0.12D-05  6  6    62.00
   7      1.31201745    -0.84305840  -268.10848129    -0.00005886    -0.00000208  0.14D-05  0.37D-06  6  2    71.97
   8      1.31245912    -0.84310107  -268.10852396    -0.00004267    -0.00000065  0.45D-06  0.11D-06  6  1    81.65
   9      1.31264436    -0.84310565  -268.10852854    -0.00000458    -0.00000022  0.15D-06  0.35D-07  6  4    91.49
  10      1.31270742    -0.84310857  -268.10853146    -0.00000292    -0.00000005  0.35D-07  0.95D-08  6  3   101.26
  11      1.31273683    -0.84310731  -268.10853020     0.00000126    -0.00000002  0.13D-07  0.28D-08  6  5   111.08
  12      1.31274717    -0.84310704  -268.10852993     0.00000026    -0.00000000  0.26D-08  0.95D-09  6  6   120.94
  13      1.31274602    -0.84310613  -268.10852902     0.00000091    -0.00000000  0.96D-09  0.28D-09  6  2   130.68
  14      1.31274081    -0.84310528  -268.10852817     0.00000084    -0.00000000  0.21D-09  0.67D-10  6  1   140.50
  15      1.31273674    -0.84310470  -268.10852759     0.00000059    -0.00000000  0.78D-10  0.19D-10  6  4   150.30
  16      1.31273356    -0.84310432  -268.10852721     0.00000038    -0.00000000  0.28D-10  0.63D-11  6  3   160.06
  17      1.31273136    -0.84310408  -268.10852697     0.00000024    -0.00000000  0.10D-10  0.24D-11  6  5   170.47
  18      1.31273045    -0.84310402  -268.10852691     0.00000006    -0.00000000  0.41D-11  0.87D-12  6  6   180.19
  19      1.31272985    -0.84310398  -268.10852687     0.00000003    -0.00000000  0.16D-11  0.37D-12  6  2   190.05
  20      1.31272953    -0.84310397  -268.10852686     0.00000001    -0.00000000  0.60D-12  0.13D-12  6  1   199.79
  21      1.31272936    -0.84310396  -268.10852685     0.00000001    -0.00000000  0.28D-12  0.58D-13  6  4   209.76
  22      1.31272924    -0.84310395  -268.10852684     0.00000001    -0.00000000  0.73D-13  0.21D-13  6  3   219.60
  23      1.31272918    -0.84310395  -268.10852684     0.00000000    -0.00000000  0.21D-13  0.62D-14  6  5   228.92
  24      1.31272918    -0.84310395  -268.10852684    -0.00000000    -0.00000000  0.67D-14  0.22D-14  6  6   236.25
  25      1.31272918    -0.84310395  -268.10852684    -0.00000000    -0.00000000  0.21D-14  0.52D-15  6  2   243.10
  26      1.31272919    -0.84310395  -268.10852684    -0.00000000    -0.00000000  0.77D-15  0.15D-15  6  1   250.92
  27      1.31272920    -0.84310395  -268.10852684    -0.00000000    -0.00000000  0.20D-15  0.62D-16  6  3   257.76
  28      1.31272920    -0.84310395  -268.10852684    -0.00000000    -0.00000000  0.29D-16  0.11D-16  6  4   264.58
  29      1.31272920    -0.84310395  -268.10852684    -0.00000000    -0.00000000  0.70D-17  0.29D-17  6  5   271.41
  30      1.31272921    -0.84310395  -268.10852684    -0.00000000    -0.00000000  0.15D-17  0.54D-18  6  6   278.26
  31      1.31272921    -0.84310395  -268.10852684    -0.00000000    -0.00000000  0.35D-18  0.10D-18  6  2   285.11

 Norm of t1 vector:      0.13872715      S-energy:    -0.00282355      T1 diagnostic:  0.01616859
                                                                       D1 diagnostic:  0.06279574
 Norm of t2 vector:      0.54174162      P-energy:    -0.84028040
                                         Alpha-Beta:  -0.66483337
                                         Alpha-Alpha: -0.09147680
                                         Beta-Beta:   -0.08397024

 Spin contamination <S**2-Sz**2-Sz>     0.00217486

 Memory could be reduced to 28.85 Mwords without degradation in triples
 

 RESULTS
 =======

  Reference energy                   -267.265422890077
  UCCSD singles energy                 -0.002823549392
  UCCSD pair energy                    -0.840280404906
  UCCSD correlation energy             -0.843103954298
  Triples (T) contribution             -0.024969451074
  Total correlation energy             -0.868073405372
 
  RHF-UCCSD energy                   -268.108526844376
  RHF-UCCSD[T] energy                -268.134831448981
  RHF-UCCSD-T energy                 -268.133075005325
 !RHF-UCCSD(T) energy                -268.133496295450

 Program statistics:

 Available memory in ccsd:               999997692
 Min. memory needed in ccsd:               7337057
 Max. memory used in ccsd:                10523002
 Max. memory used in cckext:              10867977 (31 integral passes)
 Max. memory used in cckint:              12633073 ( 1 integral passes)



 **********************************************************************************************************************************
 DATASETS  * FILE   NREC   LENGTH (MB)   RECORD NAMES
              1      18        3.17       500      610      700      900      950      970     1000      129      960     1100   
                                          VAR    BASINP    GEOM    SYMINP    ZMAT    AOBASIS   BASIS     P2S    ABASIS      S 
                                         1400     1410     1200     1210     1080     1600     1650     1700   
                                           T        V       H0       H01     AOSYM     SMH    MOLCAS    OPER   

              2       3        0.77       700     1000     2100   
                                         GEOM     BASIS     RHF  

 PROGRAMS   *        TOTAL  UCCSD(T)       RHF       INT
 CPU TIMES  *       349.78    346.36      1.89      1.43
 REAL TIME  *       363.15 SEC
 DISK USED  *         1.30 GB      
 SF USED    *       553.73 MB      
 GA USED    *         0.00 MB       (max)       0.00 MB       (current)
 **********************************************************************************************************************************

        UCCSD(T)        RHF-SCF 
   -268.13349630   -267.26542289
 **********************************************************************************************************************************
 Variable memory released
