
 Primary working directories    : /tmp/320938.809.gen6.q
 Secondary working directories  : /tmp/320938.809.gen6.q
 Wavefunction directory         : /home/vulcan/mel64643/wfu/
 Main file repository           : /tmp/320938.809.gen6.q/

 ARCHNAME  : Linux/x86_64
 FC        : /opt/intel/compilers_and_libraries_2016.1.150/linux/bin/intel64/ifort
 FCVERSION : 16.0.1
 BLASLIB   : -mkl
 id        : ccgc

 Nodes     nprocs
 n078         3
 Number of processes for MPI-2 version of Molpro:   nprocs(total)=    4   nprocs(compute)=    3   nprocs(helper)=    1
 ga_uses_ma=false, calling ma_init with nominal heap.
 GA-space will be limited to   8.0 MW (determined by -G option)

 Using customized tuning parameters: mindgm=10; mindgv=16; mindgc=4; mindgr=1; noblas=0; mincuda=1000; minvec=7
 default implementation of scratch files=sf  

 ***,Frequencies for min3
 memory,1000,m
 gthresh,energy=1.0d-10,orbital=1.0d-10,oneint=1.0d-16,twoint=1.0d-16,optgrad=1.0d-6,compress=1.0d-13
 geomtyp=xyz
 
  geometry = {
  12
  arbitrary comment
     C    1.776964391707    0.711398808326   -0.047331391796
     C    0.491811976407   -0.059992870174   -0.196493901896
     C    0.450332819107   -1.536294019674    0.101417522804
     O   -0.560767745493    0.727234937526    0.254453964104
     O   -1.837840335593    0.092269037726   -0.120531795196
     H    2.585373063107    0.209225075821   -0.611389330363
     H    1.659989573005    1.743542090086   -0.426288424049
     H    2.094891298335    0.774614635789    1.017774012023
     H   -0.504570228159   -1.984838533353   -0.220263970081
     H    1.282093539728   -2.046012948832   -0.417400876866
     H    0.562003774463   -1.718244392396    1.194564516079
     H   -1.988097412031    0.551802077567   -0.966813001012
  }
 
 basis=cc-pvdz
 {rhf;maxit,200}
 {uccsd(t);maxit,200}

 Variables initialized (661), CPU time= 0.00 sec
 Commands  initialized (458), CPU time= 0.01 sec, 486 directives.
 Default parameters read. Elapsed time= 0.07 sec

 Checking input...
 Passed
1


                                         ***  PROGRAM SYSTEM MOLPRO  ***
                         Copyright, University College Cardiff Consultants Limited, 2008

                                    Version 2010.1 linked May 16 2016 07:17:05


 **********************************************************************************************************************************
 LABEL *   Frequencies for min3                                                          
 Linux-4.4.3/n078(x86_64) 64 bit mpp version                                             DATE: 07-Mar-20          TIME: 05:44:20  
 **********************************************************************************************************************************

 SHA1:             9e8077add272b0f3cad6f7df79ec5211205f459d
 **********************************************************************************************************************************

 THRESHOLDS:

 ZERO    =  1.00D-12  ONEINT  =  1.00D-16  TWOINT  =  1.00D-16  PREFAC  =  1.00D-14  LOCALI  =  1.00D-09  EORDER  =  1.00D-04
 ENERGY  =  1.00D-10  ETEST   =  0.00D+00  EDENS   =  0.00D+00  THRDEDEF=  1.00D-06  GRADIENT=  1.00D-02  STEP    =  1.00D-03
 ORBITAL =  1.00D-10  CIVEC   =  1.00D-05  COEFF   =  1.00D-04  PRINTCI =  5.00D-02  PUNCHCI =  9.90D+01  OPTGRAD =  1.00D-06
 OPTENERG=  1.00D-06  OPTSTEP =  3.00D-04  THRGRAD =  1.00D-10  COMPRESS=  1.00D-13  VARMIN  =  1.00D-07  VARMAX  =  1.00D-03
 THRDOUB =  0.00D+00  THRDIV  =  1.00D-05  THRRED  =  1.00D-07  THRPSP  =  1.00D+00  THRDC   =  1.00D-10  THRCS   =  1.00D-10
 THRNRM  =  1.00D-08  THREQ   =  0.00D+00  THRDE   =  1.00D+00  THRREF  =  1.00D-05  SPARFAC =  1.00D+00  THRDLP  =  1.00D-07
 THRDIA  =  1.00D-10  THRDLS  =  1.00D-07  THRGPS  =  0.00D+00  THRKEX  =  0.00D+00  THRDIS  =  2.00D-01  THRVAR  =  1.00D-10
 THRLOC  =  1.00D-06  THRGAP  =  1.00D-06  THRLOCT = -1.00D+00  THRGAPT = -1.00D+00  THRORB  =  1.00D-06  THRMLTP =  0.00D+00
 THRCPQCI=  1.00D-10  KEXTA   =  0.00D+00  THRCOARS=  0.00D+00  SYMTOL  =  1.00D-06  GRADTOL =  1.00D-06  THROVL  =  1.00D-08
 THRORTH =  1.00D-08  GRID    =  1.00D-06  GRIDMAX =  1.00D-03  DTMAX   =  0.00D+00

 SETTING GEOMTYP        =    XYZ

 Variable memory set to 1000000000 words,  buffer space   230000 words

 SETTING BASIS          =    CC-PVDZ


 Recomputing integrals since basis changed


 Using spherical harmonics

 Library entry C      S cc-pVDZ              selected for orbital group  1
 Library entry C      P cc-pVDZ              selected for orbital group  1
 Library entry C      D cc-pVDZ              selected for orbital group  1
 Library entry O      S cc-pVDZ              selected for orbital group  2
 Library entry O      P cc-pVDZ              selected for orbital group  2
 Library entry O      D cc-pVDZ              selected for orbital group  2
 Library entry H      S cc-pVDZ              selected for orbital group  3
 Library entry H      P cc-pVDZ              selected for orbital group  3

1PROGRAM * SEWARD (Integral evaluation for generally contracted gaussian basis sets)     Author: Roland Lindh, 1990

 Geometry written to block  1 of record 700


 Point group  C1  



 ATOMIC COORDINATES

 NR  ATOM    CHARGE       X              Y              Z

   1  C       6.00    3.357976046    1.344348918   -0.089443368
   2  C       6.00    0.929389944   -0.113370094   -0.371319661
   3  C       6.00    0.851005696   -2.903174955    0.191651343
   4  O       8.00   -1.059697462    1.374274865    0.480848305
   5  O       8.00   -3.473014908    0.174363212   -0.227772083
   6  H       1.00    4.885647037    0.395378093   -1.155358394
   7  H       1.00    3.136925674    3.294817049   -0.805568374
   8  H       1.00    3.958770829    1.463809519    1.923314146
   9  H       1.00   -0.953499545   -3.750801243   -0.416238580
  10  H       1.00    2.422805665   -3.866404135   -0.788773344
  11  H       1.00    1.062033219   -3.247011328    2.257399782
  12  H       1.00   -3.756959631    1.042754805   -1.827011792

 Bond lengths in Bohr (Angstrom)

 1-2  2.846476668  1-6  2.090573875  1-7  2.089503343  1-8  2.103905420  2-3  2.847119878
     ( 1.506290578)     ( 1.106284048)     ( 1.105717547)     ( 1.113338798)     ( 1.506630951)

  2- 4  2.625975338   3- 9  2.084283966   3-10  2.087965077   3-11  2.104773783   4- 5  2.786760112
       ( 1.389606300)       ( 1.102955572)       ( 1.104903532)       ( 1.113798316)       ( 1.474689938)

  5-12  1.841818724
       ( 0.974648492)

 Bond angles

  1-2-3  120.37866573   1-2-4  108.90555081   2-1-6  109.90789723   2-1-7  110.72230376

  2- 1- 8  111.55860415   2- 3- 9  111.38629349   2- 3-10  109.78336042   2- 3-11  110.57166128

  2- 4- 5  109.23946113   3- 2- 4  118.03986083   4- 5-12   98.70149023   6- 1- 7  109.04348770

  6- 1- 8  107.75096351   7- 1- 8  107.76325483   9- 3-10  109.09789723   9- 3-11  107.85534787

 10- 3-11  108.06018077

 NUCLEAR CHARGE:                   41
 NUMBER OF PRIMITIVE AOS:         184
 NUMBER OF SYMMETRY AOS:          179
 NUMBER OF CONTRACTIONS:          105   ( 105A   )
 NUMBER OF CORE ORBITALS:           5   (   5A   )
 NUMBER OF VALENCE ORBITALS:       27   (  27A   )


 NUCLEAR REPULSION ENERGY  183.21652392


 Eigenvalues of metric

         1 0.345E-02 0.435E-02 0.105E-01 0.141E-01 0.182E-01 0.214E-01 0.331E-01 0.346E-01


 Contracted 2-electron integrals neglected if value below      1.0D-16
 AO integral compression algorithm  1   Integral accuracy      1.0D-16

     127.402 MB (compressed) written to integral file ( 93.4%)

     Node minimum: 30.671 MB, node maximum: 50.070 MB


 NUMBER OF SORTED TWO-ELECTRON INTEGRALS:    5164320.     BUFFER LENGTH:  32768
 NUMBER OF SEGMENTS:   1  SEGMENT LENGTH:    5164320      RECORD LENGTH: 524288

 Memory used in sort:       5.72 MW

 SORT1 READ    17075332. AND WROTE     5135879. INTEGRALS IN     15 RECORDS. CPU TIME:     0.29 SEC, REAL TIME:     0.33 SEC
 SORT2 READ    15396573. AND WROTE    15487395. INTEGRALS IN    534 RECORDS. CPU TIME:     0.08 SEC, REAL TIME:     0.13 SEC

 Node minimum:     5160610.  Node maximum:     5164320. integrals

 OPERATOR DM      FOR CENTER  0  COORDINATES:    0.000000    0.000000    0.000000


 **********************************************************************************************************************************
 DATASETS  * FILE   NREC   LENGTH (MB)   RECORD NAMES
              1      18        3.17       500      610      700      900      950      970     1000      129      960     1100   
                                          VAR    BASINP    GEOM    SYMINP    ZMAT    AOBASIS   BASIS     P2S    ABASIS      S 
                                         1400     1410     1200     1210     1080     1600     1650     1700   
                                           T        V       H0       H01     AOSYM     SMH    MOLCAS    OPER   

 PROGRAMS   *        TOTAL       INT
 CPU TIMES  *         0.98      0.91
 REAL TIME  *         1.42 SEC
 DISK USED  *       315.98 MB      
 GA USED    *         0.00 MB       (max)       0.00 MB       (current)
 **********************************************************************************************************************************

1PROGRAM * RHF-SCF (OPEN SHELL)       Authors: W. Meyer, H.-J. Werner


 NUMBER OF ELECTRONS:      21+   20-    SPACE SYMMETRY=1    SPIN SYMMETRY: Doublet 
 CONVERGENCE THRESHOLDS:    1.00E-10 (Density)    1.00E-11 (Energy)
 MAX. NUMBER OF ITERATIONS:      200
 INTERPOLATION TYPE:            DIIS
 INTERPOLATION STEPS:              2 (START)      1 (STEP)
 LEVEL SHIFTS:                 -0.30 (CLOSED)  0.00 (OPEN) 



 Orbital guess generated from atomic densities. Full valence occupancy:   32

 Molecular orbital dump at record        2100.2

 ITERATION    DDIFF          GRAD             ENERGY        2-EL.EN.            DIPOLE MOMENTS         DIIS
    1      0.000D+00      0.000D+00      -267.17822628    555.810163    0.57046    0.04993   -0.74931    0
    2      0.000D+00      0.617D-02      -267.24888319    555.729978    0.41384   -0.13078   -0.59842    1
    3      0.927D-02      0.214D-02      -267.26105803    555.648526    0.39358   -0.05889   -0.62565    2
    4      0.336D-02      0.912D-03      -267.26466488    555.800543    0.37895   -0.09904   -0.64194    3
    5      0.186D-02      0.363D-03      -267.26523379    555.771871    0.38148   -0.09255   -0.63487    4
    6      0.792D-03      0.110D-03      -267.26531019    555.758145    0.37975   -0.09234   -0.63760    5
    7      0.277D-03      0.511D-04      -267.26533032    555.755120    0.37903   -0.09209   -0.63708    6
    8      0.144D-03      0.273D-04      -267.26533638    555.753178    0.37931   -0.09220   -0.63730    7
    9      0.924D-04      0.115D-04      -267.26533730    555.753489    0.37949   -0.09216   -0.63705    8
   10      0.366D-04      0.501D-05      -267.26533746    555.754102    0.37975   -0.09217   -0.63712    9
   11      0.147D-04      0.196D-05      -267.26533749    555.753944    0.37980   -0.09217   -0.63712    9
   12      0.651D-05      0.670D-06      -267.26533749    555.754078    0.37982   -0.09217   -0.63712    9
   13      0.227D-05      0.226D-06      -267.26533749    555.753994    0.37982   -0.09217   -0.63712    9
   14      0.632D-06      0.759D-07      -267.26533749    555.754003    0.37982   -0.09217   -0.63712    9
   15      0.193D-06      0.302D-07      -267.26533749    555.753999    0.37983   -0.09217   -0.63712    9
   16      0.829D-07      0.146D-07      -267.26533749    555.754000    0.37983   -0.09217   -0.63712    9
   17      0.378D-07      0.757D-08      -267.26533749    555.754000    0.37983   -0.09217   -0.63712    9
   18      0.225D-07      0.343D-08      -267.26533749    555.754000    0.37983   -0.09217   -0.63712    9
   19      0.115D-07      0.133D-08      -267.26533749    555.754000    0.37983   -0.09217   -0.63712    9
   20      0.444D-08      0.569D-09      -267.26533749    555.754000    0.37983   -0.09217   -0.63712    9
   21      0.166D-08      0.288D-09      -267.26533749    555.754000    0.37983   -0.09217   -0.63712    9
   22      0.759D-09      0.163D-09      -267.26533749    555.754000    0.37983   -0.09217   -0.63712    9
   23      0.449D-09      0.800D-10      -267.26533749    555.754000    0.37983   -0.09217   -0.63712    9
   24      0.265D-09      0.318D-10      -267.26533749    555.754000    0.37983   -0.09217   -0.63712    9
   25      0.937D-10      0.130D-10      -267.26533749    555.754000    0.37983   -0.09217   -0.63712    0

 Final alpha occupancy:  21
 Final beta  occupancy:  20

 !RHF STATE 1.1 Energy               -267.265337488318
 Nuclear energy                       183.21652392
 One-electron energy                 -728.35886160
 Two-electron energy                  277.87700020
 Virial quotient                       -1.00156502
 !RHF STATE 1.1 Dipole moment           0.37982661    -0.09216892    -0.63711764
 Dipole moment /Debye                   0.96535971    -0.23425467    -1.61928545

 Orbital energies:

         1.1          2.1          3.1          4.1          5.1          6.1          7.1          8.1          9.1         10.1
    -20.630423   -20.628814   -11.279241   -11.238083   -11.232214    -1.470114    -1.240646    -1.023201    -0.945240    -0.768346

        11.1         12.1         13.1         14.1         15.1         16.1         17.1         18.1         19.1         20.1
     -0.704544    -0.642951    -0.626734    -0.588797    -0.545063    -0.543308    -0.538940    -0.516881    -0.492937    -0.469826

        21.1         22.1         23.1
     -0.352254     0.181243     0.183509


 **********************************************************************************************************************************
 DATASETS  * FILE   NREC   LENGTH (MB)   RECORD NAMES
              1      18        3.17       500      610      700      900      950      970     1000      129      960     1100   
                                          VAR    BASINP    GEOM    SYMINP    ZMAT    AOBASIS   BASIS     P2S    ABASIS      S 
                                         1400     1410     1200     1210     1080     1600     1650     1700   
                                           T        V       H0       H01     AOSYM     SMH    MOLCAS    OPER   

              2       3        0.77       700     1000     2100   
                                         GEOM     BASIS     RHF  

 PROGRAMS   *        TOTAL       RHF       INT
 CPU TIMES  *         2.23      1.25      0.91
 REAL TIME  *         2.82 SEC
 DISK USED  *       332.55 MB      
 SF USED    *         0.04 MB      
 GA USED    *         0.00 MB       (max)       0.00 MB       (current)
 **********************************************************************************************************************************


1PROGRAM * CCSD (Unrestricted open-shell coupled cluster)     Authors: C. Hampel, H.-J. Werner, 1991, M. Deegan, P.J. Knowles, 1992


 Convergence thresholds:  THRVAR = 1.00D-08  THRDEN = 1.00D-10

 CCSD(T)     terms to be evaluated (factor= 1.000)


 Number of core orbitals:           5 (   5 )
 Number of closed-shell orbitals:  15 (  15 )
 Number of active  orbitals:        1 (   1 )
 Number of external orbitals:      84 (  84 )

 Memory could be reduced to 24.91 Mwords without degradation in triples

 Number of N-1 electron functions:              31
 Number of N-2 electron functions:             465
 Number of singly external CSFs:              2635
 Number of doubly external CSFs:           2537250
 Total number of CSFs:                     2539885

 Molecular orbitals read from record     2100.2  Type=RHF/CANONICAL (state 1.1)

 Integral transformation finished. Total CPU:   0.87 sec, npass=  1  Memory used:  12.63 MW

 Starting RMP2 calculation

 ITER.      SQ.NORM     CORR.ENERGY   TOTAL ENERGY   ENERGY CHANGE        DEN1      VAR(S)    VAR(P)  DIIS     TIME
   1      1.24307182    -0.78642041  -268.05175790    -0.78642041    -0.00305066  0.20D-04  0.11D-02  1  1     1.18
   2      1.24571432    -0.78971037  -268.05504785    -0.00328995    -0.00000475  0.54D-06  0.19D-05  2  2     1.44
   3      1.24577989    -0.78975244  -268.05508993    -0.00004208    -0.00000003  0.16D-07  0.68D-08  3  3     1.72
   4      1.24578085    -0.78975245  -268.05508993    -0.00000000    -0.00000000  0.27D-09  0.38D-10  4  4     2.01
   5      1.24578093    -0.78975248  -268.05508997    -0.00000003    -0.00000000  0.25D-11  0.65D-12  5  5     2.33
   6      1.24578094    -0.78975248  -268.05508997    -0.00000001    -0.00000000  0.28D-13  0.87D-14  6  6     2.68
   7      1.24578094    -0.78975248  -268.05508997     0.00000000    -0.00000000  0.47D-15  0.12D-15  6  1     3.03
   8      1.24578094    -0.78975248  -268.05508997     0.00000000    -0.00000000  0.60D-17  0.13D-17  6  2     3.38

 Norm of t1 vector:      0.03893193      S-energy:    -0.00227159      T1 diagnostic:  0.00055029
 Norm of t2 vector:      0.49423198      P-energy:    -0.78748089
                                         Alpha-Beta:  -0.59345452
                                         Alpha-Alpha: -0.10094383
                                         Beta-Beta:   -0.09308254

 Spin contamination <S**2-Sz**2-Sz>     0.00104017
  Reference energy                   -267.265337488316
  RHF-RMP2 correlation energy          -0.789752484113
 !RHF-RMP2 energy                    -268.055089972430

 Starting UCCSD calculation

 ITER.      SQ.NORM     CORR.ENERGY   TOTAL ENERGY   ENERGY CHANGE        DEN1      VAR(S)    VAR(P)  DIIS     TIME
   1      1.26284833    -0.80908650  -268.07442399    -0.80908650    -0.02516204  0.38D-02  0.59D-02  1  1     8.97
   2      1.29163400    -0.83650246  -268.10183995    -0.02741596    -0.00201201  0.22D-03  0.66D-03  2  2    14.53
   3      1.30158015    -0.84100302  -268.10634051    -0.00450056    -0.00032469  0.19D-03  0.56D-04  3  3    20.14
   4      1.30649440    -0.84248071  -268.10781820    -0.00147769    -0.00007207  0.43D-04  0.14D-04  4  4    25.78
   5      1.30922336    -0.84286878  -268.10820626    -0.00038807    -0.00002367  0.19D-04  0.32D-05  5  5    31.47
   6      1.31116148    -0.84307317  -268.10841066    -0.00020439    -0.00000646  0.42D-05  0.12D-05  6  6    37.20
   7      1.31211032    -0.84313192  -268.10846941    -0.00005875    -0.00000208  0.14D-05  0.37D-06  6  2    42.92
   8      1.31255169    -0.84317460  -268.10851208    -0.00004268    -0.00000065  0.45D-06  0.11D-06  6  1    48.62
   9      1.31273679    -0.84317918  -268.10851667    -0.00000458    -0.00000022  0.15D-06  0.35D-07  6  4    54.33
  10      1.31279997    -0.84318212  -268.10851960    -0.00000294    -0.00000005  0.35D-07  0.95D-08  6  3    60.07
  11      1.31282946    -0.84318085  -268.10851834     0.00000126    -0.00000002  0.13D-07  0.28D-08  6  5    65.80
  12      1.31283983    -0.84318059  -268.10851808     0.00000026    -0.00000000  0.26D-08  0.95D-09  6  6    71.55
  13      1.31283868    -0.84317967  -268.10851716     0.00000092    -0.00000000  0.96D-09  0.28D-09  6  2    77.31
  14      1.31283348    -0.84317883  -268.10851631     0.00000084    -0.00000000  0.21D-09  0.67D-10  6  1    83.05
  15      1.31282940    -0.84317824  -268.10851573     0.00000059    -0.00000000  0.78D-10  0.19D-10  6  4    88.80
  16      1.31282622    -0.84317786  -268.10851535     0.00000038    -0.00000000  0.28D-10  0.63D-11  6  3    94.54
  17      1.31282402    -0.84317762  -268.10851511     0.00000024    -0.00000000  0.10D-10  0.24D-11  6  5   100.28
  18      1.31282311    -0.84317756  -268.10851505     0.00000006    -0.00000000  0.41D-11  0.87D-12  6  6   106.03
  19      1.31282251    -0.84317752  -268.10851501     0.00000003    -0.00000000  0.16D-11  0.37D-12  6  2   111.79
  20      1.31282219    -0.84317751  -268.10851500     0.00000001    -0.00000000  0.60D-12  0.13D-12  6  1   117.54
  21      1.31282202    -0.84317750  -268.10851499     0.00000001    -0.00000000  0.28D-12  0.58D-13  6  4   123.29
  22      1.31282190    -0.84317749  -268.10851498     0.00000001    -0.00000000  0.74D-13  0.21D-13  6  3   129.03
  23      1.31282184    -0.84317749  -268.10851498     0.00000000    -0.00000000  0.21D-13  0.63D-14  6  5   134.78
  24      1.31282184    -0.84317749  -268.10851498    -0.00000000    -0.00000000  0.67D-14  0.23D-14  6  6   140.52
  25      1.31282184    -0.84317749  -268.10851498    -0.00000000    -0.00000000  0.21D-14  0.52D-15  6  2   146.27
  26      1.31282185    -0.84317749  -268.10851498    -0.00000000    -0.00000000  0.77D-15  0.15D-15  6  1   152.08
  27      1.31282186    -0.84317749  -268.10851498    -0.00000000    -0.00000000  0.20D-15  0.63D-16  6  3   158.00
  28      1.31282186    -0.84317749  -268.10851498    -0.00000000    -0.00000000  0.30D-16  0.11D-16  6  4   164.27
  29      1.31282187    -0.84317750  -268.10851498    -0.00000000    -0.00000000  0.71D-17  0.29D-17  6  5   170.02
  30      1.31282187    -0.84317750  -268.10851498    -0.00000000    -0.00000000  0.15D-17  0.54D-18  6  6   175.77
  31      1.31282187    -0.84317750  -268.10851498    -0.00000000    -0.00000000  0.35D-18  0.10D-18  6  2   181.50

 Norm of t1 vector:      0.13870753      S-energy:    -0.00282106      T1 diagnostic:  0.01616824
                                                                       D1 diagnostic:  0.06281831
 Norm of t2 vector:      0.54183216      P-energy:    -0.84035643
                                         Alpha-Beta:  -0.66491348
                                         Alpha-Alpha: -0.09147290
                                         Beta-Beta:   -0.08397005

 Spin contamination <S**2-Sz**2-Sz>     0.00217023

 Memory could be reduced to 28.85 Mwords without degradation in triples
 

 RESULTS
 =======

  Reference energy                   -267.265337488316
  UCCSD singles energy                 -0.002821060979
  UCCSD pair energy                    -0.840356434314
  UCCSD correlation energy             -0.843177495293
  Triples (T) contribution             -0.024980654371
  Total correlation energy             -0.868158149664
 
  RHF-UCCSD energy                   -268.108514983609
  RHF-UCCSD[T] energy                -268.134831712107
  RHF-UCCSD-T energy                 -268.133073999729
 !RHF-UCCSD(T) energy                -268.133495637980

 Program statistics:

 Available memory in ccsd:               999997692
 Min. memory needed in ccsd:               7337057
 Max. memory used in ccsd:                10523002
 Max. memory used in cckext:              10867977 (31 integral passes)
 Max. memory used in cckint:              12633073 ( 1 integral passes)



 **********************************************************************************************************************************
 DATASETS  * FILE   NREC   LENGTH (MB)   RECORD NAMES
              1      18        3.17       500      610      700      900      950      970     1000      129      960     1100   
                                          VAR    BASINP    GEOM    SYMINP    ZMAT    AOBASIS   BASIS     P2S    ABASIS      S 
                                         1400     1410     1200     1210     1080     1600     1650     1700   
                                           T        V       H0       H01     AOSYM     SMH    MOLCAS    OPER   

              2       3        0.77       700     1000     2100   
                                         GEOM     BASIS     RHF  

 PROGRAMS   *        TOTAL  UCCSD(T)       RHF       INT
 CPU TIMES  *       223.43    221.19      1.25      0.91
 REAL TIME  *       232.49 SEC
 DISK USED  *         1.30 GB      
 SF USED    *       553.73 MB      
 GA USED    *         0.00 MB       (max)       0.00 MB       (current)
 **********************************************************************************************************************************

        UCCSD(T)        RHF-SCF 
   -268.13349564   -267.26533749
 **********************************************************************************************************************************
 Variable memory released
