
 Primary working directories    : /tmp/320938.774.gen6.q
 Secondary working directories  : /tmp/320938.774.gen6.q
 Wavefunction directory         : /home/vulcan/mel64643/wfu/
 Main file repository           : /tmp/320938.774.gen6.q/

 ARCHNAME  : Linux/x86_64
 FC        : /opt/intel/compilers_and_libraries_2016.1.150/linux/bin/intel64/ifort
 FCVERSION : 16.0.1
 BLASLIB   : -mkl
 id        : ccgc

 Nodes     nprocs
 n090         3
 Number of processes for MPI-2 version of Molpro:   nprocs(total)=    4   nprocs(compute)=    3   nprocs(helper)=    1
 ga_uses_ma=false, calling ma_init with nominal heap.
 GA-space will be limited to   8.0 MW (determined by -G option)

 Using customized tuning parameters: mindgm=10; mindgv=16; mindgc=4; mindgr=1; noblas=0; mincuda=1000; minvec=7
 default implementation of scratch files=sf  

 ***,Frequencies for min3
 memory,1000,m
 gthresh,energy=1.0d-10,orbital=1.0d-10,oneint=1.0d-16,twoint=1.0d-16,optgrad=1.0d-6,compress=1.0d-13
 geomtyp=xyz
 
  geometry = {
  12
  arbitrary comment
     C    1.776964391707    0.711398808326   -0.047331391796
     C    0.491811976407   -0.059992870174   -0.196493901896
     C    0.450332819107   -1.536294019674    0.101417522804
     O   -0.560767745493    0.727234937526    0.254453964104
     O   -1.837840335593    0.092269037726   -0.120531795196
     H    2.585373063107    0.211465914126   -0.611440883996
     H    1.660426393907    1.742887987326   -0.426532369096
     H    2.095123485707    0.774048097326    1.017650404504
     H   -0.502697262277   -1.982704456299   -0.219853823876
     H    1.280810507417   -2.047689650668   -0.417312100860
     H    0.561154649147   -1.719084832233    1.194676951583
     H   -1.988507228560    0.551164945103   -0.967005252529
  }
 
 basis=cc-pvdz
 {rhf;maxit,200}
 {uccsd(t);maxit,200}

 Variables initialized (661), CPU time= 0.00 sec
 Commands  initialized (458), CPU time= 0.01 sec, 486 directives.
 Default parameters read. Elapsed time= 0.06 sec

 Checking input...
 Passed
1


                                         ***  PROGRAM SYSTEM MOLPRO  ***
                         Copyright, University College Cardiff Consultants Limited, 2008

                                    Version 2010.1 linked May 16 2016 07:17:05


 **********************************************************************************************************************************
 LABEL *   Frequencies for min3                                                          
 Linux-4.4.3/n090(x86_64) 64 bit mpp version                                             DATE: 07-Mar-20          TIME: 05:31:05  
 **********************************************************************************************************************************

 SHA1:             9e8077add272b0f3cad6f7df79ec5211205f459d
 **********************************************************************************************************************************

 THRESHOLDS:

 ZERO    =  1.00D-12  ONEINT  =  1.00D-16  TWOINT  =  1.00D-16  PREFAC  =  1.00D-14  LOCALI  =  1.00D-09  EORDER  =  1.00D-04
 ENERGY  =  1.00D-10  ETEST   =  0.00D+00  EDENS   =  0.00D+00  THRDEDEF=  1.00D-06  GRADIENT=  1.00D-02  STEP    =  1.00D-03
 ORBITAL =  1.00D-10  CIVEC   =  1.00D-05  COEFF   =  1.00D-04  PRINTCI =  5.00D-02  PUNCHCI =  9.90D+01  OPTGRAD =  1.00D-06
 OPTENERG=  1.00D-06  OPTSTEP =  3.00D-04  THRGRAD =  1.00D-10  COMPRESS=  1.00D-13  VARMIN  =  1.00D-07  VARMAX  =  1.00D-03
 THRDOUB =  0.00D+00  THRDIV  =  1.00D-05  THRRED  =  1.00D-07  THRPSP  =  1.00D+00  THRDC   =  1.00D-10  THRCS   =  1.00D-10
 THRNRM  =  1.00D-08  THREQ   =  0.00D+00  THRDE   =  1.00D+00  THRREF  =  1.00D-05  SPARFAC =  1.00D+00  THRDLP  =  1.00D-07
 THRDIA  =  1.00D-10  THRDLS  =  1.00D-07  THRGPS  =  0.00D+00  THRKEX  =  0.00D+00  THRDIS  =  2.00D-01  THRVAR  =  1.00D-10
 THRLOC  =  1.00D-06  THRGAP  =  1.00D-06  THRLOCT = -1.00D+00  THRGAPT = -1.00D+00  THRORB  =  1.00D-06  THRMLTP =  0.00D+00
 THRCPQCI=  1.00D-10  KEXTA   =  0.00D+00  THRCOARS=  0.00D+00  SYMTOL  =  1.00D-06  GRADTOL =  1.00D-06  THROVL  =  1.00D-08
 THRORTH =  1.00D-08  GRID    =  1.00D-06  GRIDMAX =  1.00D-03  DTMAX   =  0.00D+00

 SETTING GEOMTYP        =    XYZ

 Variable memory set to 1000000000 words,  buffer space   230000 words

 SETTING BASIS          =    CC-PVDZ


 Recomputing integrals since basis changed


 Using spherical harmonics

 Library entry C      S cc-pVDZ              selected for orbital group  1
 Library entry C      P cc-pVDZ              selected for orbital group  1
 Library entry C      D cc-pVDZ              selected for orbital group  1
 Library entry O      S cc-pVDZ              selected for orbital group  2
 Library entry O      P cc-pVDZ              selected for orbital group  2
 Library entry O      D cc-pVDZ              selected for orbital group  2
 Library entry H      S cc-pVDZ              selected for orbital group  3
 Library entry H      P cc-pVDZ              selected for orbital group  3

1PROGRAM * SEWARD (Integral evaluation for generally contracted gaussian basis sets)     Author: Roland Lindh, 1990

 Geometry written to block  1 of record 700


 Point group  C1  



 ATOMIC COORDINATES

 NR  ATOM    CHARGE       X              Y              Z

   1  C       6.00    3.357976046    1.344348918   -0.089443368
   2  C       6.00    0.929389944   -0.113370094   -0.371319661
   3  C       6.00    0.851005696   -2.903174955    0.191651343
   4  O       8.00   -1.059697462    1.374274865    0.480848305
   5  O       8.00   -3.473014908    0.174363212   -0.227772083
   6  H       1.00    4.885647037    0.399612664   -1.155455816
   7  H       1.00    3.137751146    3.293580974   -0.806029364
   8  H       1.00    3.959209599    1.462738916    1.923080562
   9  H       1.00   -0.949960153   -3.746768422   -0.415463516
  10  H       1.00    2.420381085   -3.869572642   -0.788605582
  11  H       1.00    1.060428604   -3.248599530    2.257612254
  12  H       1.00   -3.757734072    1.041550799   -1.827375095

 Bond lengths in Bohr (Angstrom)

 1-2  2.846476668  1-6  2.088704811  1-7  2.088420481  1-8  2.103746788  2-3  2.847119878
     ( 1.506290578)     ( 1.105294982)     ( 1.105144521)     ( 1.113254854)     ( 1.506630951)

  2- 4  2.625975338   3- 9  2.079354799   3-10  2.087526585   3-11  2.105082083   4- 5  2.786760112
       ( 1.389606300)       ( 1.100347169)       ( 1.104671492)       ( 1.113961462)       ( 1.474689938)

  5-12  1.841686485
       ( 0.974578514)

 Bond angles

  1-2-3  120.37866573   1-2-4  108.90555081   2-1-6  109.98947225   2-1-7  110.73429490

  2- 1- 8  111.55454090   2- 3- 9  111.32421082   2- 3-10  109.88119346   2- 3-11  110.61626627

  2- 4- 5  109.23946113   3- 2- 4  118.03986083   4- 5-12   98.74245312   6- 1- 7  108.91518355

  6- 1- 8  107.73808609   7- 1- 8  107.80970783   9- 3-10  109.03936867   9- 3-11  107.82678024

 10- 3-11  108.06503472

 NUCLEAR CHARGE:                   41
 NUMBER OF PRIMITIVE AOS:         184
 NUMBER OF SYMMETRY AOS:          179
 NUMBER OF CONTRACTIONS:          105   ( 105A   )
 NUMBER OF CORE ORBITALS:           5   (   5A   )
 NUMBER OF VALENCE ORBITALS:       27   (  27A   )


 NUCLEAR REPULSION ENERGY  183.22966925


 Eigenvalues of metric

         1 0.345E-02 0.435E-02 0.105E-01 0.141E-01 0.182E-01 0.214E-01 0.331E-01 0.345E-01


 Contracted 2-electron integrals neglected if value below      1.0D-16
 AO integral compression algorithm  1   Integral accuracy      1.0D-16

     127.402 MB (compressed) written to integral file ( 93.4%)

     Node minimum: 34.865 MB, node maximum: 56.361 MB


 NUMBER OF SORTED TWO-ELECTRON INTEGRALS:    5164320.     BUFFER LENGTH:  32768
 NUMBER OF SEGMENTS:   1  SEGMENT LENGTH:    5164320      RECORD LENGTH: 524288

 Memory used in sort:       5.72 MW

 SORT1 READ    17075548. AND WROTE     5135911. INTEGRALS IN     15 RECORDS. CPU TIME:     0.31 SEC, REAL TIME:     0.34 SEC
 SORT2 READ    15396633. AND WROTE    15487395. INTEGRALS IN    399 RECORDS. CPU TIME:     0.08 SEC, REAL TIME:     0.12 SEC

 Node minimum:     5160610.  Node maximum:     5164320. integrals

 OPERATOR DM      FOR CENTER  0  COORDINATES:    0.000000    0.000000    0.000000


 **********************************************************************************************************************************
 DATASETS  * FILE   NREC   LENGTH (MB)   RECORD NAMES
              1      18        3.17       500      610      700      900      950      970     1000      129      960     1100   
                                          VAR    BASINP    GEOM    SYMINP    ZMAT    AOBASIS   BASIS     P2S    ABASIS      S 
                                         1400     1410     1200     1210     1080     1600     1650     1700   
                                           T        V       H0       H01     AOSYM     SMH    MOLCAS    OPER   

 PROGRAMS   *        TOTAL       INT
 CPU TIMES  *         1.11      1.05
 REAL TIME  *         1.54 SEC
 DISK USED  *       318.07 MB      
 GA USED    *         0.00 MB       (max)       0.00 MB       (current)
 **********************************************************************************************************************************

1PROGRAM * RHF-SCF (OPEN SHELL)       Authors: W. Meyer, H.-J. Werner


 NUMBER OF ELECTRONS:      21+   20-    SPACE SYMMETRY=1    SPIN SYMMETRY: Doublet 
 CONVERGENCE THRESHOLDS:    1.00E-10 (Density)    1.00E-11 (Energy)
 MAX. NUMBER OF ITERATIONS:      200
 INTERPOLATION TYPE:            DIIS
 INTERPOLATION STEPS:              2 (START)      1 (STEP)
 LEVEL SHIFTS:                 -0.30 (CLOSED)  0.00 (OPEN) 



 Orbital guess generated from atomic densities. Full valence occupancy:   32

 Molecular orbital dump at record        2100.2

 ITERATION    DDIFF          GRAD             ENERGY        2-EL.EN.            DIPOLE MOMENTS         DIIS
    1      0.000D+00      0.000D+00      -267.17826349    555.833178    0.57040    0.05012   -0.74925    0
    2      0.000D+00      0.617D-02      -267.24896975    555.753615    0.41380   -0.13128   -0.59889    1
    3      0.928D-02      0.214D-02      -267.26114734    555.671545    0.39342   -0.05944   -0.62627    2
    4      0.336D-02      0.912D-03      -267.26475591    555.823772    0.37872   -0.09968   -0.64268    3
    5      0.186D-02      0.364D-03      -267.26532513    555.795133    0.38122   -0.09323   -0.63567    4
    6      0.792D-03      0.110D-03      -267.26540157    555.781371    0.37948   -0.09304   -0.63841    5
    7      0.277D-03      0.511D-04      -267.26542172    555.778362    0.37877   -0.09278   -0.63790    6
    8      0.144D-03      0.273D-04      -267.26542778    555.776415    0.37905   -0.09290   -0.63811    7
    9      0.924D-04      0.115D-04      -267.26542870    555.776727    0.37923   -0.09286   -0.63787    8
   10      0.366D-04      0.501D-05      -267.26542886    555.777341    0.37949   -0.09287   -0.63793    9
   11      0.147D-04      0.196D-05      -267.26542889    555.777182    0.37954   -0.09287   -0.63794    9
   12      0.651D-05      0.671D-06      -267.26542889    555.777317    0.37956   -0.09287   -0.63794    9
   13      0.227D-05      0.226D-06      -267.26542889    555.777232    0.37957   -0.09287   -0.63793    9
   14      0.632D-06      0.758D-07      -267.26542889    555.777241    0.37957   -0.09287   -0.63793    9
   15      0.193D-06      0.301D-07      -267.26542889    555.777237    0.37957   -0.09287   -0.63793    9
   16      0.827D-07      0.146D-07      -267.26542889    555.777239    0.37957   -0.09287   -0.63793    9
   17      0.376D-07      0.754D-08      -267.26542889    555.777239    0.37957   -0.09287   -0.63793    9
   18      0.224D-07      0.343D-08      -267.26542889    555.777239    0.37957   -0.09287   -0.63793    9
   19      0.115D-07      0.133D-08      -267.26542889    555.777239    0.37957   -0.09287   -0.63793    9
   20      0.444D-08      0.568D-09      -267.26542889    555.777239    0.37957   -0.09287   -0.63793    9
   21      0.166D-08      0.287D-09      -267.26542889    555.777239    0.37957   -0.09287   -0.63793    9
   22      0.757D-09      0.162D-09      -267.26542889    555.777239    0.37957   -0.09287   -0.63793    9
   23      0.447D-09      0.798D-10      -267.26542889    555.777239    0.37957   -0.09287   -0.63793    9
   24      0.264D-09      0.317D-10      -267.26542889    555.777239    0.37957   -0.09287   -0.63793    9
   25      0.934D-10      0.129D-10      -267.26542889    555.777239    0.37957   -0.09287   -0.63793    0

 Final alpha occupancy:  21
 Final beta  occupancy:  20

 !RHF STATE 1.1 Energy               -267.265428888334
 Nuclear energy                       183.22966925
 One-electron energy                 -728.38371755
 Two-electron energy                  277.88861941
 Virial quotient                       -1.00154391
 !RHF STATE 1.1 Dipole moment           0.37956834    -0.09286885    -0.63793319
 Dipole moment /Debye                   0.96470331    -0.23603362    -1.62135824

 Orbital energies:

         1.1          2.1          3.1          4.1          5.1          6.1          7.1          8.1          9.1         10.1
    -20.630463   -20.628815   -11.279247   -11.237863   -11.231907    -1.470120    -1.240679    -1.023263    -0.945486    -0.768499

        11.1         12.1         13.1         14.1         15.1         16.1         17.1         18.1         19.1         20.1
     -0.704575    -0.643100    -0.626739    -0.588841    -0.545195    -0.543427    -0.539045    -0.516995    -0.492972    -0.469868

        21.1         22.1         23.1
     -0.352281     0.181321     0.183542


 **********************************************************************************************************************************
 DATASETS  * FILE   NREC   LENGTH (MB)   RECORD NAMES
              1      18        3.17       500      610      700      900      950      970     1000      129      960     1100   
                                          VAR    BASINP    GEOM    SYMINP    ZMAT    AOBASIS   BASIS     P2S    ABASIS      S 
                                         1400     1410     1200     1210     1080     1600     1650     1700   
                                           T        V       H0       H01     AOSYM     SMH    MOLCAS    OPER   

              2       3        0.77       700     1000     2100   
                                         GEOM     BASIS     RHF  

 PROGRAMS   *        TOTAL       RHF       INT
 CPU TIMES  *         2.51      1.40      1.05
 REAL TIME  *         3.21 SEC
 DISK USED  *       334.64 MB      
 SF USED    *         0.04 MB      
 GA USED    *         0.00 MB       (max)       0.00 MB       (current)
 **********************************************************************************************************************************


1PROGRAM * CCSD (Unrestricted open-shell coupled cluster)     Authors: C. Hampel, H.-J. Werner, 1991, M. Deegan, P.J. Knowles, 1992


 Convergence thresholds:  THRVAR = 1.00D-08  THRDEN = 1.00D-10

 CCSD(T)     terms to be evaluated (factor= 1.000)


 Number of core orbitals:           5 (   5 )
 Number of closed-shell orbitals:  15 (  15 )
 Number of active  orbitals:        1 (   1 )
 Number of external orbitals:      84 (  84 )

 Memory could be reduced to 24.91 Mwords without degradation in triples

 Number of N-1 electron functions:              31
 Number of N-2 electron functions:             465
 Number of singly external CSFs:              2635
 Number of doubly external CSFs:           2537250
 Total number of CSFs:                     2539885

 Molecular orbitals read from record     2100.2  Type=RHF/CANONICAL (state 1.1)

 Integral transformation finished. Total CPU:   0.92 sec, npass=  1  Memory used:  12.63 MW

 Starting RMP2 calculation

 ITER.      SQ.NORM     CORR.ENERGY   TOTAL ENERGY   ENERGY CHANGE        DEN1      VAR(S)    VAR(P)  DIIS     TIME
   1      1.24299555    -0.78634777  -268.05177665    -0.78634777    -0.00304905  0.20D-04  0.11D-02  1  1     1.25
   2      1.24563597    -0.78963593  -268.05506482    -0.00328816    -0.00000474  0.54D-06  0.19D-05  2  2     1.52
   3      1.24570149    -0.78967798  -268.05510686    -0.00004205    -0.00000003  0.16D-07  0.68D-08  3  3     1.81
   4      1.24570244    -0.78967798  -268.05510687    -0.00000000    -0.00000000  0.27D-09  0.38D-10  4  4     2.13
   5      1.24570252    -0.78967801  -268.05510690    -0.00000003    -0.00000000  0.25D-11  0.65D-12  5  5     2.47
   6      1.24570254    -0.78967802  -268.05510690    -0.00000001    -0.00000000  0.28D-13  0.87D-14  6  6     2.83
   7      1.24570254    -0.78967802  -268.05510690     0.00000000    -0.00000000  0.47D-15  0.12D-15  6  1     3.19
   8      1.24570254    -0.78967802  -268.05510690     0.00000000    -0.00000000  0.59D-17  0.13D-17  6  2     3.56

 Norm of t1 vector:      0.03893007      S-energy:    -0.00227146      T1 diagnostic:  0.00055021
 Norm of t2 vector:      0.49415280      P-energy:    -0.78740655
                                         Alpha-Beta:  -0.59338968
                                         Alpha-Alpha: -0.10093942
                                         Beta-Beta:   -0.09307746

 Spin contamination <S**2-Sz**2-Sz>     0.00104034
  Reference energy                   -267.265428888336
  RHF-RMP2 correlation energy          -0.789678015922
 !RHF-RMP2 energy                    -268.055106904258

 Starting UCCSD calculation

 ITER.      SQ.NORM     CORR.ENERGY   TOTAL ENERGY   ENERGY CHANGE        DEN1      VAR(S)    VAR(P)  DIIS     TIME
   1      1.26276341    -0.80901923  -268.07444812    -0.80901923    -0.02515231  0.38D-02  0.59D-02  1  1     9.81
   2      1.29152925    -0.83642399  -268.10185288    -0.02740476    -0.00201063  0.22D-03  0.66D-03  2  2    16.04
   3      1.30146720    -0.84092055  -268.10634944    -0.00449657    -0.00032461  0.19D-03  0.56D-04  3  3    22.30
   4      1.30638007    -0.84239742  -268.10782631    -0.00147687    -0.00007209  0.43D-04  0.14D-04  4  4    28.63
   5      1.30911039    -0.84278557  -268.10821446    -0.00038815    -0.00002367  0.19D-04  0.32D-05  5  5    34.93
   6      1.31104983    -0.84299007  -268.10841896    -0.00020450    -0.00000646  0.42D-05  0.12D-05  6  6    41.13
   7      1.31199927    -0.84304887  -268.10847776    -0.00005880    -0.00000208  0.14D-05  0.37D-06  6  2    47.44
   8      1.31244093    -0.84309155  -268.10852044    -0.00004268    -0.00000065  0.45D-06  0.11D-06  6  1    53.73
   9      1.31262619    -0.84309614  -268.10852502    -0.00000458    -0.00000022  0.15D-06  0.35D-07  6  4    60.03
  10      1.31268937    -0.84309906  -268.10852795    -0.00000293    -0.00000005  0.35D-07  0.95D-08  6  3    66.33
  11      1.31271888    -0.84309780  -268.10852669     0.00000126    -0.00000002  0.13D-07  0.28D-08  6  5    72.63
  12      1.31272927    -0.84309754  -268.10852643     0.00000026    -0.00000000  0.26D-08  0.95D-09  6  6    78.96
  13      1.31272812    -0.84309663  -268.10852552     0.00000092    -0.00000000  0.96D-09  0.28D-09  6  2    85.29
  14      1.31272291    -0.84309578  -268.10852467     0.00000084    -0.00000000  0.21D-09  0.67D-10  6  1    91.62
  15      1.31271883    -0.84309520  -268.10852409     0.00000059    -0.00000000  0.78D-10  0.19D-10  6  4    97.93
  16      1.31271565    -0.84309481  -268.10852370     0.00000038    -0.00000000  0.28D-10  0.63D-11  6  3   104.26
  17      1.31271345    -0.84309458  -268.10852346     0.00000024    -0.00000000  0.10D-10  0.24D-11  6  5   110.57
  18      1.31271254    -0.84309452  -268.10852340     0.00000006    -0.00000000  0.41D-11  0.87D-12  6  6   116.89
  19      1.31271193    -0.84309448  -268.10852337     0.00000003    -0.00000000  0.16D-11  0.37D-12  6  2   123.19
  20      1.31271161    -0.84309447  -268.10852336     0.00000001    -0.00000000  0.60D-12  0.13D-12  6  1   129.51
  21      1.31271145    -0.84309446  -268.10852335     0.00000001    -0.00000000  0.28D-12  0.58D-13  6  4   135.82
  22      1.31271133    -0.84309445  -268.10852334     0.00000001    -0.00000000  0.74D-13  0.21D-13  6  3   142.12
  23      1.31271127    -0.84309445  -268.10852334     0.00000000    -0.00000000  0.21D-13  0.63D-14  6  5   148.43
  24      1.31271126    -0.84309445  -268.10852334    -0.00000000    -0.00000000  0.67D-14  0.22D-14  6  6   154.73
  25      1.31271127    -0.84309445  -268.10852334    -0.00000000    -0.00000000  0.21D-14  0.52D-15  6  2   161.05
  26      1.31271128    -0.84309445  -268.10852334    -0.00000000    -0.00000000  0.77D-15  0.15D-15  6  1   167.36
  27      1.31271129    -0.84309445  -268.10852334    -0.00000000    -0.00000000  0.20D-15  0.63D-16  6  3   173.66
  28      1.31271129    -0.84309445  -268.10852334    -0.00000000    -0.00000000  0.30D-16  0.11D-16  6  4   179.98
  29      1.31271129    -0.84309445  -268.10852334    -0.00000000    -0.00000000  0.71D-17  0.29D-17  6  5   186.29
  30      1.31271129    -0.84309445  -268.10852334    -0.00000000    -0.00000000  0.15D-17  0.54D-18  6  6   192.61
  31      1.31271129    -0.84309445  -268.10852334    -0.00000000    -0.00000000  0.35D-18  0.10D-18  6  2   198.91

 Norm of t1 vector:      0.13871428      S-energy:    -0.00282104      T1 diagnostic:  0.01616890
                                                                       D1 diagnostic:  0.06281813
 Norm of t2 vector:      0.54172838      P-energy:    -0.84027341
                                         Alpha-Beta:  -0.66482898
                                         Alpha-Alpha: -0.09147409
                                         Beta-Beta:   -0.08397034

 Spin contamination <S**2-Sz**2-Sz>     0.00217212

 Memory could be reduced to 28.85 Mwords without degradation in triples
 

 RESULTS
 =======

  Reference energy                   -267.265428888336
  UCCSD singles energy                 -0.002821043353
  UCCSD pair energy                    -0.840273408991
  UCCSD correlation energy             -0.843094452344
  Triples (T) contribution             -0.024971494067
  Total correlation energy             -0.868065946411
 
  RHF-UCCSD energy                   -268.108523340680
  RHF-UCCSD[T] energy                -268.134830464647
  RHF-UCCSD-T energy                 -268.133073449400
 !RHF-UCCSD(T) energy                -268.133494834747

 Program statistics:

 Available memory in ccsd:               999997692
 Min. memory needed in ccsd:               7337057
 Max. memory used in ccsd:                10523002
 Max. memory used in cckext:              10867977 (31 integral passes)
 Max. memory used in cckint:              12633073 ( 1 integral passes)



 **********************************************************************************************************************************
 DATASETS  * FILE   NREC   LENGTH (MB)   RECORD NAMES
              1      18        3.17       500      610      700      900      950      970     1000      129      960     1100   
                                          VAR    BASINP    GEOM    SYMINP    ZMAT    AOBASIS   BASIS     P2S    ABASIS      S 
                                         1400     1410     1200     1210     1080     1600     1650     1700   
                                           T        V       H0       H01     AOSYM     SMH    MOLCAS    OPER   

              2       3        0.77       700     1000     2100   
                                         GEOM     BASIS     RHF  

 PROGRAMS   *        TOTAL  UCCSD(T)       RHF       INT
 CPU TIMES  *       246.35    243.84      1.40      1.05
 REAL TIME  *       256.38 SEC
 DISK USED  *         1.30 GB      
 SF USED    *       553.73 MB      
 GA USED    *         0.00 MB       (max)       0.00 MB       (current)
 **********************************************************************************************************************************

        UCCSD(T)        RHF-SCF 
   -268.13349483   -267.26542889
 **********************************************************************************************************************************
 Variable memory released
