
 Primary working directories    : /tmp/320938.358.gen6.q
 Secondary working directories  : /tmp/320938.358.gen6.q
 Wavefunction directory         : /home/vulcan/mel64643/wfu/
 Main file repository           : /tmp/320938.358.gen6.q/

 ARCHNAME  : Linux/x86_64
 FC        : /opt/intel/compilers_and_libraries_2016.1.150/linux/bin/intel64/ifort
 FCVERSION : 16.0.1
 BLASLIB   : -mkl
 id        : ccgc

 Nodes     nprocs
 n080         3
 Number of processes for MPI-2 version of Molpro:   nprocs(total)=    4   nprocs(compute)=    3   nprocs(helper)=    1
 ga_uses_ma=false, calling ma_init with nominal heap.
 GA-space will be limited to   8.0 MW (determined by -G option)

 Using customized tuning parameters: mindgm=10; mindgv=16; mindgc=4; mindgr=1; noblas=0; mincuda=1000; minvec=7
 default implementation of scratch files=sf  

 ***,Frequencies for min3
 memory,1000,m
 gthresh,energy=1.0d-10,orbital=1.0d-10,oneint=1.0d-16,twoint=1.0d-16,optgrad=1.0d-6,compress=1.0d-13
 geomtyp=xyz
 
  geometry = {
  12
  arbitrary comment
     C    1.776964391707    0.711398808326   -0.047331391796
     C    0.491811976407   -0.059992870174   -0.195858138425
     C    0.450334595838   -1.536294104051    0.101225781021
     O   -0.560740969492    0.727246358156    0.254257222591
     O   -1.837861720730    0.092262278029   -0.120533731557
     H    2.585291162371    0.211419103145   -0.611997805799
     H    1.660371490085    1.742854286297   -0.427062824643
     H    2.095244961742    0.774096368602    1.017121850536
     H   -0.504910637701   -1.982792232035   -0.220131642386
     H    1.281829990304   -2.047236890156   -0.417423560049
     H    0.563097155590   -1.720153499977    1.195546051372
     H   -1.989347226097    0.551827901076   -0.968002871399
  }
 
 basis=cc-pvdz
 {rhf;maxit,200}
 {uccsd(t);maxit,200}

 Variables initialized (661), CPU time= 0.00 sec
 Commands  initialized (458), CPU time= 0.00 sec, 486 directives.
 Default parameters read. Elapsed time= 0.04 sec

 Checking input...
 Passed
1


                                         ***  PROGRAM SYSTEM MOLPRO  ***
                         Copyright, University College Cardiff Consultants Limited, 2008

                                    Version 2010.1 linked May 16 2016 07:17:05


 **********************************************************************************************************************************
 LABEL *   Frequencies for min3                                                          
 Linux-4.4.3/n080(x86_64) 64 bit mpp version                                             DATE: 07-Mar-20          TIME: 03:03:34  
 **********************************************************************************************************************************

 SHA1:             9e8077add272b0f3cad6f7df79ec5211205f459d
 **********************************************************************************************************************************

 THRESHOLDS:

 ZERO    =  1.00D-12  ONEINT  =  1.00D-16  TWOINT  =  1.00D-16  PREFAC  =  1.00D-14  LOCALI  =  1.00D-09  EORDER  =  1.00D-04
 ENERGY  =  1.00D-10  ETEST   =  0.00D+00  EDENS   =  0.00D+00  THRDEDEF=  1.00D-06  GRADIENT=  1.00D-02  STEP    =  1.00D-03
 ORBITAL =  1.00D-10  CIVEC   =  1.00D-05  COEFF   =  1.00D-04  PRINTCI =  5.00D-02  PUNCHCI =  9.90D+01  OPTGRAD =  1.00D-06
 OPTENERG=  1.00D-06  OPTSTEP =  3.00D-04  THRGRAD =  1.00D-10  COMPRESS=  1.00D-13  VARMIN  =  1.00D-07  VARMAX  =  1.00D-03
 THRDOUB =  0.00D+00  THRDIV  =  1.00D-05  THRRED  =  1.00D-07  THRPSP  =  1.00D+00  THRDC   =  1.00D-10  THRCS   =  1.00D-10
 THRNRM  =  1.00D-08  THREQ   =  0.00D+00  THRDE   =  1.00D+00  THRREF  =  1.00D-05  SPARFAC =  1.00D+00  THRDLP  =  1.00D-07
 THRDIA  =  1.00D-10  THRDLS  =  1.00D-07  THRGPS  =  0.00D+00  THRKEX  =  0.00D+00  THRDIS  =  2.00D-01  THRVAR  =  1.00D-10
 THRLOC  =  1.00D-06  THRGAP  =  1.00D-06  THRLOCT = -1.00D+00  THRGAPT = -1.00D+00  THRORB  =  1.00D-06  THRMLTP =  0.00D+00
 THRCPQCI=  1.00D-10  KEXTA   =  0.00D+00  THRCOARS=  0.00D+00  SYMTOL  =  1.00D-06  GRADTOL =  1.00D-06  THROVL  =  1.00D-08
 THRORTH =  1.00D-08  GRID    =  1.00D-06  GRIDMAX =  1.00D-03  DTMAX   =  0.00D+00

 SETTING GEOMTYP        =    XYZ

 Variable memory set to 1000000000 words,  buffer space   230000 words

 SETTING BASIS          =    CC-PVDZ


 Recomputing integrals since basis changed


 Using spherical harmonics

 Library entry C      S cc-pVDZ              selected for orbital group  1
 Library entry C      P cc-pVDZ              selected for orbital group  1
 Library entry C      D cc-pVDZ              selected for orbital group  1
 Library entry O      S cc-pVDZ              selected for orbital group  2
 Library entry O      P cc-pVDZ              selected for orbital group  2
 Library entry O      D cc-pVDZ              selected for orbital group  2
 Library entry H      S cc-pVDZ              selected for orbital group  3
 Library entry H      P cc-pVDZ              selected for orbital group  3

1PROGRAM * SEWARD (Integral evaluation for generally contracted gaussian basis sets)     Author: Roland Lindh, 1990

 Geometry written to block  1 of record 700


 Point group  C1  



 ATOMIC COORDINATES

 NR  ATOM    CHARGE       X              Y              Z

   1  C       6.00    3.357976046    1.344348918   -0.089443368
   2  C       6.00    0.929389944   -0.113370094   -0.370118242
   3  C       6.00    0.851009054   -2.903175114    0.191289004
   4  O       8.00   -1.059646863    1.374296447    0.480476518
   5  O       8.00   -3.473055320    0.174350438   -0.227775742
   6  H       1.00    4.885492267    0.399524204   -1.156508246
   7  H       1.00    3.137647393    3.293517288   -0.807031779
   8  H       1.00    3.959439156    1.462830136    1.922081740
   9  H       1.00   -0.954142826   -3.746934294   -0.415988517
  10  H       1.00    2.422307629   -3.868717049   -0.788816209
  11  H       1.00    1.064099409   -3.250619019    2.259254615
  12  H       1.00   -3.759321438    1.042803605   -1.829260321

 Bond lengths in Bohr (Angstrom)

 1-2  2.846357946  1-6  2.089168974  1-7  2.088716156  1-8  2.102862081  2-3  2.846811147
     ( 1.506227754)     ( 1.105540607)     ( 1.105300986)     ( 1.112786687)     ( 1.506467577)

  2- 4  2.625439126   3- 9  2.083095977   3-10  2.088505846   3-11  2.107749163   4- 5  2.786760138
       ( 1.389322549)       ( 1.102326915)       ( 1.105189694)       ( 1.115372819)       ( 1.474689952)

  5-12  1.844156189
       ( 0.975885425)

 Bond angles

  1-2-3  120.39278627   1-2-4  108.92100283   2-1-6  109.99063743   2-1-7  110.73454822

  2- 1- 8  111.54434325   2- 3- 9  111.30350012   2- 3-10  109.86435254   2- 3-11  110.62439780

  2- 4- 5  109.25523944   3- 2- 4  118.06926981   4- 5-12   98.76398224   6- 1- 7  108.88601628

  6- 1- 8  107.75392808   7- 1- 8  107.83188166   9- 3-10  109.14141693   9- 3-11  107.87034155

 10- 3-11  107.94822811

 NUCLEAR CHARGE:                   41
 NUMBER OF PRIMITIVE AOS:         184
 NUMBER OF SYMMETRY AOS:          179
 NUMBER OF CONTRACTIONS:          105   ( 105A   )
 NUMBER OF CORE ORBITALS:           5   (   5A   )
 NUMBER OF VALENCE ORBITALS:       27   (  27A   )


 NUCLEAR REPULSION ENERGY  183.21276669


 Eigenvalues of metric

         1 0.345E-02 0.435E-02 0.105E-01 0.141E-01 0.182E-01 0.214E-01 0.331E-01 0.346E-01


 Contracted 2-electron integrals neglected if value below      1.0D-16
 AO integral compression algorithm  1   Integral accuracy      1.0D-16

     127.402 MB (compressed) written to integral file ( 93.4%)

     Node minimum: 34.603 MB, node maximum: 56.361 MB


 NUMBER OF SORTED TWO-ELECTRON INTEGRALS:    5164320.     BUFFER LENGTH:  32768
 NUMBER OF SEGMENTS:   1  SEGMENT LENGTH:    5164320      RECORD LENGTH: 524288

 Memory used in sort:       5.72 MW

 SORT1 READ    17075251. AND WROTE     5135869. INTEGRALS IN     15 RECORDS. CPU TIME:     0.30 SEC, REAL TIME:     0.34 SEC
 SORT2 READ    15396552. AND WROTE    15487395. INTEGRALS IN    396 RECORDS. CPU TIME:     0.08 SEC, REAL TIME:     0.13 SEC

 Node minimum:     5160610.  Node maximum:     5164320. integrals

 OPERATOR DM      FOR CENTER  0  COORDINATES:    0.000000    0.000000    0.000000


 **********************************************************************************************************************************
 DATASETS  * FILE   NREC   LENGTH (MB)   RECORD NAMES
              1      18        3.17       500      610      700      900      950      970     1000      129      960     1100   
                                          VAR    BASINP    GEOM    SYMINP    ZMAT    AOBASIS   BASIS     P2S    ABASIS      S 
                                         1400     1410     1200     1210     1080     1600     1650     1700   
                                           T        V       H0       H01     AOSYM     SMH    MOLCAS    OPER   

 PROGRAMS   *        TOTAL       INT
 CPU TIMES  *         1.09      1.05
 REAL TIME  *         1.50 SEC
 DISK USED  *       318.06 MB      
 GA USED    *         0.00 MB       (max)       0.00 MB       (current)
 **********************************************************************************************************************************

1PROGRAM * RHF-SCF (OPEN SHELL)       Authors: W. Meyer, H.-J. Werner


 NUMBER OF ELECTRONS:      21+   20-    SPACE SYMMETRY=1    SPIN SYMMETRY: Doublet 
 CONVERGENCE THRESHOLDS:    1.00E-10 (Density)    1.00E-11 (Energy)
 MAX. NUMBER OF ITERATIONS:      200
 INTERPOLATION TYPE:            DIIS
 INTERPOLATION STEPS:              2 (START)      1 (STEP)
 LEVEL SHIFTS:                 -0.30 (CLOSED)  0.00 (OPEN) 



 Orbital guess generated from atomic densities. Full valence occupancy:   32

 Molecular orbital dump at record        2100.2

 ITERATION    DDIFF          GRAD             ENERGY        2-EL.EN.            DIPOLE MOMENTS         DIIS
    1      0.000D+00      0.000D+00      -267.17817915    555.808501    0.56875    0.05027   -0.75065    0
    2      0.000D+00      0.617D-02      -267.24883063    555.724581    0.41259   -0.13005   -0.59984    1
    3      0.927D-02      0.214D-02      -267.26100759    555.643443    0.39234   -0.05823   -0.62705    2
    4      0.336D-02      0.912D-03      -267.26461662    555.795232    0.37780   -0.09843   -0.64331    3
    5      0.186D-02      0.364D-03      -267.26518693    555.766529    0.38039   -0.09196   -0.63628    4
    6      0.793D-03      0.110D-03      -267.26526370    555.752771    0.37868   -0.09176   -0.63901    5
    7      0.278D-03      0.512D-04      -267.26528391    555.749765    0.37799   -0.09151   -0.63849    6
    8      0.144D-03      0.273D-04      -267.26528999    555.747810    0.37827   -0.09162   -0.63871    7
    9      0.926D-04      0.115D-04      -267.26529091    555.748135    0.37846   -0.09158   -0.63846    8
   10      0.366D-04      0.501D-05      -267.26529107    555.748744    0.37872   -0.09159   -0.63853    9
   11      0.147D-04      0.197D-05      -267.26529109    555.748585    0.37877   -0.09159   -0.63853    9
   12      0.652D-05      0.671D-06      -267.26529110    555.748721    0.37879   -0.09159   -0.63853    9
   13      0.228D-05      0.227D-06      -267.26529110    555.748636    0.37879   -0.09159   -0.63853    9
   14      0.633D-06      0.761D-07      -267.26529110    555.748645    0.37879   -0.09159   -0.63853    9
   15      0.193D-06      0.303D-07      -267.26529110    555.748641    0.37879   -0.09159   -0.63853    9
   16      0.833D-07      0.147D-07      -267.26529110    555.748642    0.37879   -0.09159   -0.63853    9
   17      0.380D-07      0.761D-08      -267.26529110    555.748642    0.37879   -0.09159   -0.63853    9
   18      0.227D-07      0.344D-08      -267.26529110    555.748642    0.37879   -0.09159   -0.63853    9
   19      0.115D-07      0.134D-08      -267.26529110    555.748642    0.37879   -0.09159   -0.63853    9
   20      0.445D-08      0.571D-09      -267.26529110    555.748642    0.37879   -0.09159   -0.63853    9
   21      0.167D-08      0.289D-09      -267.26529110    555.748642    0.37879   -0.09159   -0.63853    9
   22      0.762D-09      0.163D-09      -267.26529110    555.748642    0.37879   -0.09159   -0.63853    9
   23      0.450D-09      0.802D-10      -267.26529110    555.748642    0.37879   -0.09159   -0.63853    9
   24      0.266D-09      0.319D-10      -267.26529110    555.748642    0.37879   -0.09159   -0.63853    9
   25      0.940D-10      0.130D-10      -267.26529110    555.748642    0.37879   -0.09159   -0.63853    0

 Final alpha occupancy:  21
 Final beta  occupancy:  20

 !RHF STATE 1.1 Energy               -267.265291097139
 Nuclear energy                       183.21276669
 One-electron energy                 -728.35237899
 Two-electron energy                  277.87432120
 Virial quotient                       -1.00156895
 !RHF STATE 1.1 Dipole moment           0.37879438    -0.09158898    -0.63852724
 Dipole moment /Debye                   0.96273621    -0.23278072    -1.62286806

 Orbital energies:

         1.1          2.1          3.1          4.1          5.1          6.1          7.1          8.1          9.1         10.1
    -20.630462   -20.628951   -11.279175   -11.237857   -11.232297    -1.470030    -1.240533    -1.023161    -0.945274    -0.768386

        11.1         12.1         13.1         14.1         15.1         16.1         17.1         18.1         19.1         20.1
     -0.704360    -0.643011    -0.626705    -0.588746    -0.544953    -0.543381    -0.538920    -0.516892    -0.492967    -0.469785

        21.1         22.1         23.1
     -0.352046     0.181139     0.183434


 **********************************************************************************************************************************
 DATASETS  * FILE   NREC   LENGTH (MB)   RECORD NAMES
              1      18        3.17       500      610      700      900      950      970     1000      129      960     1100   
                                          VAR    BASINP    GEOM    SYMINP    ZMAT    AOBASIS   BASIS     P2S    ABASIS      S 
                                         1400     1410     1200     1210     1080     1600     1650     1700   
                                           T        V       H0       H01     AOSYM     SMH    MOLCAS    OPER   

              2       3        0.77       700     1000     2100   
                                         GEOM     BASIS     RHF  

 PROGRAMS   *        TOTAL       RHF       INT
 CPU TIMES  *         2.47      1.38      1.05
 REAL TIME  *         3.01 SEC
 DISK USED  *       334.63 MB      
 SF USED    *         0.04 MB      
 GA USED    *         0.00 MB       (max)       0.00 MB       (current)
 **********************************************************************************************************************************


1PROGRAM * CCSD (Unrestricted open-shell coupled cluster)     Authors: C. Hampel, H.-J. Werner, 1991, M. Deegan, P.J. Knowles, 1992


 Convergence thresholds:  THRVAR = 1.00D-08  THRDEN = 1.00D-10

 CCSD(T)     terms to be evaluated (factor= 1.000)


 Number of core orbitals:           5 (   5 )
 Number of closed-shell orbitals:  15 (  15 )
 Number of active  orbitals:        1 (   1 )
 Number of external orbitals:      84 (  84 )

 Memory could be reduced to 24.91 Mwords without degradation in triples

 Number of N-1 electron functions:              31
 Number of N-2 electron functions:             465
 Number of singly external CSFs:              2635
 Number of doubly external CSFs:           2537250
 Total number of CSFs:                     2539885

 Molecular orbitals read from record     2100.2  Type=RHF/CANONICAL (state 1.1)

 Integral transformation finished. Total CPU:   0.92 sec, npass=  1  Memory used:  12.63 MW

 Starting RMP2 calculation

 ITER.      SQ.NORM     CORR.ENERGY   TOTAL ENERGY   ENERGY CHANGE        DEN1      VAR(S)    VAR(P)  DIIS     TIME
   1      1.24309743    -0.78646471  -268.05175581    -0.78646471    -0.00305081  0.20D-04  0.11D-02  1  1     1.20
   2      1.24574018    -0.78975482  -268.05504592    -0.00329011    -0.00000475  0.54D-06  0.19D-05  2  2     1.44
   3      1.24580578    -0.78979691  -268.05508801    -0.00004209    -0.00000003  0.16D-07  0.68D-08  3  3     1.70
   4      1.24580673    -0.78979691  -268.05508801    -0.00000000    -0.00000000  0.27D-09  0.38D-10  4  4     1.98
   5      1.24580682    -0.78979695  -268.05508804    -0.00000003    -0.00000000  0.25D-11  0.65D-12  5  5     2.28
   6      1.24580683    -0.78979695  -268.05508805    -0.00000001    -0.00000000  0.28D-13  0.87D-14  6  6     2.61
   7      1.24580683    -0.78979695  -268.05508805     0.00000000    -0.00000000  0.47D-15  0.12D-15  6  1     2.94
   8      1.24580683    -0.78979695  -268.05508805     0.00000000    -0.00000000  0.60D-17  0.13D-17  6  2     3.26

 Norm of t1 vector:      0.03895690      S-energy:    -0.00227405      T1 diagnostic:  0.00055043
 Norm of t2 vector:      0.49425620      P-energy:    -0.78752290
                                         Alpha-Beta:  -0.59348486
                                         Alpha-Alpha: -0.10095080
                                         Beta-Beta:   -0.09308723

 Spin contamination <S**2-Sz**2-Sz>     0.00104102
  Reference energy                   -267.265291097141
  RHF-RMP2 correlation energy          -0.789796951168
 !RHF-RMP2 energy                    -268.055088048309

 Starting UCCSD calculation

 ITER.      SQ.NORM     CORR.ENERGY   TOTAL ENERGY   ENERGY CHANGE        DEN1      VAR(S)    VAR(P)  DIIS     TIME
   1      1.26287053    -0.80912268  -268.07441378    -0.80912268    -0.02516499  0.38D-02  0.59D-02  1  1     7.92
   2      1.29166241    -0.83654167  -268.10183276    -0.02741898    -0.00201278  0.22D-03  0.66D-03  2  2    12.61
   3      1.30161403    -0.84104384  -268.10633493    -0.00450217    -0.00032489  0.19D-03  0.56D-04  3  3    17.32
   4      1.30653272    -0.84252233  -268.10781343    -0.00147849    -0.00007215  0.43D-04  0.14D-04  4  4    22.07
   5      1.30926518    -0.84291074  -268.10820184    -0.00038842    -0.00002370  0.19D-04  0.32D-05  5  5    26.84
   6      1.31120693    -0.84311540  -268.10840650    -0.00020466    -0.00000648  0.42D-05  0.12D-05  6  6    31.65
   7      1.31215864    -0.84317432  -268.10846542    -0.00005892    -0.00000209  0.14D-05  0.37D-06  6  2    36.43
   8      1.31260205    -0.84321711  -268.10850821    -0.00004279    -0.00000066  0.45D-06  0.11D-06  6  1    41.23
   9      1.31278853    -0.84322174  -268.10851284    -0.00000463    -0.00000022  0.15D-06  0.35D-07  6  4    46.02
  10      1.31285222    -0.84322470  -268.10851579    -0.00000295    -0.00000005  0.35D-07  0.96D-08  6  3    50.82
  11      1.31288188    -0.84322344  -268.10851453     0.00000126    -0.00000002  0.13D-07  0.28D-08  6  5    55.62
  12      1.31289232    -0.84322317  -268.10851427     0.00000026    -0.00000000  0.26D-08  0.96D-09  6  6    60.41
  13      1.31289117    -0.84322225  -268.10851335     0.00000092    -0.00000000  0.97D-09  0.29D-09  6  2    65.19
  14      1.31288595    -0.84322140  -268.10851250     0.00000085    -0.00000000  0.21D-09  0.68D-10  6  1    71.14
  15      1.31288186    -0.84322082  -268.10851191     0.00000059    -0.00000000  0.79D-10  0.19D-10  6  4    77.31
  16      1.31287868    -0.84322043  -268.10851153     0.00000038    -0.00000000  0.28D-10  0.63D-11  6  3    83.64
  17      1.31287647    -0.84322019  -268.10851129     0.00000024    -0.00000000  0.10D-10  0.24D-11  6  5    89.78
  18      1.31287556    -0.84322013  -268.10851123     0.00000006    -0.00000000  0.41D-11  0.88D-12  6  6    94.77
  19      1.31287494    -0.84322010  -268.10851119     0.00000003    -0.00000000  0.16D-11  0.37D-12  6  2    99.87
  20      1.31287462    -0.84322009  -268.10851118     0.00000001    -0.00000000  0.60D-12  0.13D-12  6  1   104.68
  21      1.31287446    -0.84322008  -268.10851117     0.00000001    -0.00000000  0.28D-12  0.58D-13  6  4   109.49
  22      1.31287433    -0.84322007  -268.10851116     0.00000001    -0.00000000  0.74D-13  0.22D-13  6  3   114.32
  23      1.31287427    -0.84322006  -268.10851116     0.00000000    -0.00000000  0.22D-13  0.63D-14  6  5   119.14
  24      1.31287427    -0.84322006  -268.10851116    -0.00000000    -0.00000000  0.68D-14  0.23D-14  6  6   123.95
  25      1.31287427    -0.84322007  -268.10851116    -0.00000000    -0.00000000  0.21D-14  0.53D-15  6  2   128.75
  26      1.31287428    -0.84322007  -268.10851116    -0.00000000    -0.00000000  0.78D-15  0.16D-15  6  1   133.55
  27      1.31287429    -0.84322007  -268.10851116    -0.00000000    -0.00000000  0.20D-15  0.63D-16  6  3   138.37
  28      1.31287429    -0.84322007  -268.10851116    -0.00000000    -0.00000000  0.30D-16  0.11D-16  6  4   143.17
  29      1.31287430    -0.84322007  -268.10851116    -0.00000000    -0.00000000  0.71D-17  0.30D-17  6  5   147.98
  30      1.31287430    -0.84322007  -268.10851117    -0.00000000    -0.00000000  0.15D-17  0.54D-18  6  6   153.55
  31      1.31287430    -0.84322007  -268.10851117    -0.00000000    -0.00000000  0.36D-18  0.11D-18  6  2   159.28

 Norm of t1 vector:      0.13878486      S-energy:    -0.00282439      T1 diagnostic:  0.01617596
                                                                       D1 diagnostic:  0.06280634
 Norm of t2 vector:      0.54186074      P-energy:    -0.84039567
                                         Alpha-Beta:  -0.66494702
                                         Alpha-Alpha: -0.09147674
                                         Beta-Beta:   -0.08397191

 Spin contamination <S**2-Sz**2-Sz>     0.00217686

 Memory could be reduced to 28.85 Mwords without degradation in triples
 

 RESULTS
 =======

  Reference energy                   -267.265291097141
  UCCSD singles energy                 -0.002824394788
  UCCSD pair energy                    -0.840395673125
  UCCSD correlation energy             -0.843220067913
  Triples (T) contribution             -0.024983277313
  Total correlation energy             -0.868203345226
 
  RHF-UCCSD energy                   -268.108511165054
  RHF-UCCSD[T] energy                -268.134830822052
  RHF-UCCSD-T energy                 -268.133072829758
 !RHF-UCCSD(T) energy                -268.133494442367

 Program statistics:

 Available memory in ccsd:               999997692
 Min. memory needed in ccsd:               7337057
 Max. memory used in ccsd:                10523002
 Max. memory used in cckext:              10867977 (31 integral passes)
 Max. memory used in cckint:              12633073 ( 1 integral passes)



 **********************************************************************************************************************************
 DATASETS  * FILE   NREC   LENGTH (MB)   RECORD NAMES
              1      18        3.17       500      610      700      900      950      970     1000      129      960     1100   
                                          VAR    BASINP    GEOM    SYMINP    ZMAT    AOBASIS   BASIS     P2S    ABASIS      S 
                                         1400     1410     1200     1210     1080     1600     1650     1700   
                                           T        V       H0       H01     AOSYM     SMH    MOLCAS    OPER   

              2       3        0.77       700     1000     2100   
                                         GEOM     BASIS     RHF  

 PROGRAMS   *        TOTAL  UCCSD(T)       RHF       INT
 CPU TIMES  *       201.06    198.58      1.38      1.05
 REAL TIME  *       210.84 SEC
 DISK USED  *         1.30 GB      
 SF USED    *       553.73 MB      
 GA USED    *         0.00 MB       (max)       0.00 MB       (current)
 **********************************************************************************************************************************

        UCCSD(T)        RHF-SCF 
   -268.13349444   -267.26529110
 **********************************************************************************************************************************
 Variable memory released
