
    -----------------------------------------------------------------------
          Psi4: An Open-Source Ab Initio Electronic Structure Package
                               Psi4 1.4a2.dev478 

                         Git: Rev {master} f722895 dirty


    R. M. Parrish, L. A. Burns, D. G. A. Smith, A. C. Simmonett,
    A. E. DePrince III, E. G. Hohenstein, U. Bozkaya, A. Yu. Sokolov,
    R. Di Remigio, R. M. Richard, J. F. Gonthier, A. M. James,
    H. R. McAlexander, A. Kumar, M. Saitow, X. Wang, B. P. Pritchard,
    P. Verma, H. F. Schaefer III, K. Patkowski, R. A. King, E. F. Valeev,
    F. A. Evangelista, J. M. Turney, T. D. Crawford, and C. D. Sherrill,
    J. Chem. Theory Comput. 13(7) pp 3185--3197 (2017).
    (doi: 10.1021/acs.jctc.7b00174)


                         Additional Contributions by
    P. Kraus, H. Kruse, M. H. Lechner, M. C. Schieber, R. A. Shaw,
    A. Alenaizan, R. Galvelis, Z. L. Glick, S. Lehtola, and J. P. Misiewicz

    -----------------------------------------------------------------------


    Psi4 started on: Monday, 08 June 2020 02:55PM

    Process ID: 28620
    Host:       n087
    PSIDATADIR: /opt/psi/4/master/share/psi4
    Memory:     500.0 MiB
    Threads:    4
    
  ==> Input File <==

--------------------------------------------------------------------------
set memory 40Gb

molecule {
    C   -1.174143750690   -0.774963495581   -0.000122054786
    H   -1.619161817890   -1.211058947381   -0.888547315654
    H   -1.619297713098   -1.211304443519    0.890442513253
    C   -1.174258964001    0.774783509766   -0.000053339540
    H   -1.619469338444    1.210759741733    0.890849494293
    H   -1.619300986033    1.211056980185   -0.890894818914
    C    0.352843183826    0.922279778811    0.000121433066
    H    0.838765513619    1.892385219015    0.000323926484
    O    0.767472500946    0.000221909288   -1.027353744585
    C    0.352982201279   -0.922223882652   -0.000164540531
    H    0.839056301657   -1.892252448831   -0.000271664132
    O    0.767258512109   -0.000102733068    1.027397821213
}

set {
    e_convergence 10
    d_convergence 10
    freeze_core True
    basis_guess True
    cc_type conv
    maxiter 300
}

E = energy('mp2/heavy-aug-cc-pV(Q+d)Z')
psi4.print_out("\n========================OPTAVC-XTPL==========================\n\n")
psi4.print_out("MP2/QZ correlation energy {}\n".format(variable("MP2 CORRELATION ENERGY")))
psi4.print_out("SCF/QZ reference energy {}\n".format(variable("CURRENT REFERENCE ENERGY")))
psi4.print_out("\n\n=============================================================\n")

E = energy('mp2/heavy-aug-cc-pV(T+d)Z')
psi4.print_out("\n========================OPTAVC-XTPL==========================\n\n")
psi4.print_out("MP2/TZ correlation energy {}".format(variable("MP2 CORRELATION ENERGY")))
psi4.print_out("\n\n=============================================================\n")
--------------------------------------------------------------------------

Scratch directory: /tmp/

Scratch directory: /tmp/
    SCF Algorithm Type (re)set to DF.

*** tstart() called on n087
*** at Mon Jun  8 14:55:35 2020


  //>>>>>>>>>>>>>>>>>>>>>>>>>>>>>>>>>>>//
  //      Guess SCF, pcseg-0 Basis     //
  //<<<<<<<<<<<<<<<<<<<<<<<<<<<<<<<<<<<//

   => Loading Basis Set <=

    Name: PCSEG-0
    Role: ORBITAL
    Keyword: BASIS
    atoms 1, 4, 7, 10     entry C          line    71 file /opt/psi/4/master/share/psi4/basis/pcseg-0.gbs 
    atoms 2-3, 5-6, 8, 11 entry H          line    13 file /opt/psi/4/master/share/psi4/basis/pcseg-0.gbs 
    atoms 9, 12           entry O          line   103 file /opt/psi/4/master/share/psi4/basis/pcseg-0.gbs 


         ---------------------------------------------------------
                           SCF Castup computation                  
         ---------------------------------------------------------
                                   SCF
               by Justin Turney, Rob Parrish, Andy Simmonett
                          and Daniel G. A. Smith
                              RHF Reference
                        4 Threads,    500 MiB Core
         ---------------------------------------------------------

  ==> Geometry <==

    Molecular point group: c1
    Full point group: C1

    Geometry (in Angstrom), charge = 0, multiplicity = 1:

       Center              X                  Y                   Z               Mass       
    ------------   -----------------  -----------------  -----------------  -----------------
         C           -1.174143750690    -0.774963495581    -0.000122054786    12.000000000000
         H           -1.619161817890    -1.211058947381    -0.888547315654     1.007825032230
         H           -1.619297713098    -1.211304443519     0.890442513253     1.007825032230
         C           -1.174258964001     0.774783509766    -0.000053339540    12.000000000000
         H           -1.619469338444     1.210759741733     0.890849494293     1.007825032230
         H           -1.619300986033     1.211056980185    -0.890894818914     1.007825032230
         C            0.352843183826     0.922279778811     0.000121433066    12.000000000000
         H            0.838765513619     1.892385219015     0.000323926484     1.007825032230
         O            0.767472500946     0.000221909288    -1.027353744585    15.994914619570
         C            0.352982201279    -0.922223882652    -0.000164540531    12.000000000000
         H            0.839056301657    -1.892252448831    -0.000271664132     1.007825032230
         O            0.767258512109    -0.000102733068     1.027397821213    15.994914619570

  Running in c1 symmetry.

  Rotational constants: A =      0.19853  B =      0.16230  C =      0.14677 [cm^-1]
  Rotational constants: A =   5951.69372  B =   4865.71171  C =   4399.98565 [MHz]
  Nuclear repulsion =  257.017533995355905

  Charge       = 0
  Multiplicity = 1
  Electrons    = 46
  Nalpha       = 23
  Nbeta        = 23

  ==> Algorithm <==

  SCF Algorithm Type is DF.
  DIIS enabled.
  MOM disabled.
  Fractional occupation disabled.
  Guess Type is SAD.
  Energy threshold   = 1.00e-10
  Density threshold  = 1.00e-10
  Integral threshold = 0.00e+00

  ==> Primary Basis <==

  Basis Set: PCSEG-0
    Blend: PCSEG-0
    Number of shells: 42
    Number of basis function: 66
    Number of Cartesian functions: 66
    Spherical Harmonics?: true
    Max angular momentum: 1

   => Loading Basis Set <=

    Name: (PCSEG-0 AUX)
    Role: JKFIT
    Keyword: DF_BASIS_SCF
    atoms 1, 4, 7, 10     entry C          line   198 file /opt/psi/4/master/share/psi4/basis/def2-universal-jkfit.gbs 
    atoms 2-3, 5-6, 8, 11 entry H          line    18 file /opt/psi/4/master/share/psi4/basis/def2-universal-jkfit.gbs 
    atoms 9, 12           entry O          line   318 file /opt/psi/4/master/share/psi4/basis/def2-universal-jkfit.gbs 

  ==> Integral Setup <==

  ==> DiskDFJK: Density-Fitted J/K Matrices <==

    J tasked:                  Yes
    K tasked:                  Yes
    wK tasked:                  No
    OpenMP threads:              4
    Integrals threads:           4
    Memory [MiB]:              375
    Algorithm:                Core
    Integral Cache:           NONE
    Schwarz Cutoff:          1E-12
    Fitting Condition:       1E-10

   => Auxiliary Basis Set <=

  Basis Set: (PCSEG-0 AUX)
    Blend: DEF2-UNIVERSAL-JKFIT
    Number of shells: 186
    Number of basis function: 562
    Number of Cartesian functions: 662
    Spherical Harmonics?: true
    Max angular momentum: 4

  Minimum eigenvalue in the overlap matrix is 1.2859480501E-03.
  Reciprocal condition number of the overlap matrix is 2.1237793267E-04.
    Using symmetric orthogonalization.

  ==> Pre-Iterations <==

  SCF Guess: Superposition of Atomic Densities via on-the-fly atomic UHF (no occupation information).

   -------------------------
    Irrep   Nso     Nmo    
   -------------------------
     A         66      66 
   -------------------------
    Total      66      66
   -------------------------

  ==> Iterations <==

                           Total Energy        Delta E     RMS |[F,P]|

   @DF-RHF iter SAD:  -303.69701487012856   -3.03697e+02   0.00000e+00 
   @DF-RHF iter   1:  -303.56574038860390    1.31274e-01   7.24132e-03 DIIS
   @DF-RHF iter   2:  -303.66481159627517   -9.90712e-02   3.96897e-03 DIIS
   @DF-RHF iter   3:  -303.69042797896998   -2.56164e-02   6.19917e-04 DIIS
   @DF-RHF iter   4:  -303.69161317644858   -1.18520e-03   1.96512e-04 DIIS
   @DF-RHF iter   5:  -303.69170898972362   -9.58133e-05   4.10568e-05 DIIS
   @DF-RHF iter   6:  -303.69171658385653   -7.59413e-06   8.37903e-06 DIIS
   @DF-RHF iter   7:  -303.69171698681987   -4.02963e-07   1.68597e-06 DIIS
   @DF-RHF iter   8:  -303.69171700091033   -1.40905e-08   5.41707e-07 DIIS
   @DF-RHF iter   9:  -303.69171700232516   -1.41483e-09   1.09388e-07 DIIS
   @DF-RHF iter  10:  -303.69171700240133   -7.61702e-11   1.90044e-08 DIIS
   @DF-RHF iter  11:  -303.69171700240349   -2.16005e-12   5.41845e-09 DIIS
   @DF-RHF iter  12:  -303.69171700240344    5.68434e-14   2.36179e-09 DIIS
   @DF-RHF iter  13:  -303.69171700240355   -1.13687e-13   2.30149e-10 DIIS
   @DF-RHF iter  14:  -303.69171700240361   -5.68434e-14   7.65184e-11 DIIS
  Energy and wave function converged.


  ==> Post-Iterations <==

    Orbital Energies [Eh]
    ---------------------

    Doubly Occupied:                                                      

       1A    -20.584513     2A    -20.584449     3A    -11.369606  
       4A    -11.369601     5A    -11.256051     6A    -11.255581  
       7A     -1.537530     8A     -1.312951     9A     -1.091831  
      10A     -1.008944    11A     -0.822074    12A     -0.790220  
      13A     -0.768315    14A     -0.680687    15A     -0.663016  
      16A     -0.658490    17A     -0.552334    18A     -0.534566  
      19A     -0.527375    20A     -0.524571    21A     -0.519575  
      22A     -0.467013    23A     -0.443240  

    Virtual:                                                              

      24A      0.203149    25A      0.231289    26A      0.236118  
      27A      0.242185    28A      0.253178    29A      0.267385  
      30A      0.314476    31A      0.350252    32A      0.350986  
      33A      0.382107    34A      0.406826    35A      0.464620  
      36A      0.570330    37A      0.796457    38A      0.807976  
      39A      0.820529    40A      0.925817    41A      0.932911  
      42A      0.947037    43A      0.950261    44A      1.003385  
      45A      1.005096    46A      1.030094    47A      1.060663  
      48A      1.072115    49A      1.134318    50A      1.149110  
      51A      1.170480    52A      1.174338    53A      1.211274  
      54A      1.238197    55A      1.423838    56A      1.454957  
      57A      1.482507    58A      1.522012    59A      1.691063  
      60A      1.705484    61A      1.927930    62A      1.950931  
      63A      2.140041    64A      2.299083    65A      2.374978  
      66A      2.441160  

    Final Occupation by Irrep:
              A 
    DOCC [    23 ]

  @DF-RHF Final Energy:  -303.69171700240361

   => Energetics <=

    Nuclear Repulsion Energy =            257.0175339953559046
    One-Electron Energy =                -922.7734343796757912
    Two-Electron Energy =                 362.0641833819162230
    Total Energy =                       -303.6917170024036068

Computation Completed

  //>>>>>>>>>>>>>>>>>>>>>>>>>>>>>>>>>>>//
  //                SCF                //
  //<<<<<<<<<<<<<<<<<<<<<<<<<<<<<<<<<<<//

   => Loading Basis Set <=

    Name: HEAVY-AUG-CC-PV(Q+D)Z
    Role: ORBITAL
    Keyword: BASIS
    atoms 1, 4, 7, 10     entry C          line   333 file /opt/psi/4/master/share/psi4/basis/heavy-aug-cc-pv_qpd_z.gbs 
    atoms 2-3, 5-6, 8, 11 entry H          line    86 file /opt/psi/4/master/share/psi4/basis/heavy-aug-cc-pv_qpd_z.gbs 
    atoms 9, 12           entry O          line   453 file /opt/psi/4/master/share/psi4/basis/heavy-aug-cc-pv_qpd_z.gbs 


         ---------------------------------------------------------
                                   SCF
               by Justin Turney, Rob Parrish, Andy Simmonett
                          and Daniel G. A. Smith
                              RHF Reference
                        4 Threads,    500 MiB Core
         ---------------------------------------------------------

  ==> Geometry <==

    Molecular point group: c1
    Full point group: C1

    Geometry (in Angstrom), charge = 0, multiplicity = 1:

       Center              X                  Y                   Z               Mass       
    ------------   -----------------  -----------------  -----------------  -----------------
         C           -1.174143750690    -0.774963495581    -0.000122054786    12.000000000000
         H           -1.619161817890    -1.211058947381    -0.888547315654     1.007825032230
         H           -1.619297713098    -1.211304443519     0.890442513253     1.007825032230
         C           -1.174258964001     0.774783509766    -0.000053339540    12.000000000000
         H           -1.619469338444     1.210759741733     0.890849494293     1.007825032230
         H           -1.619300986033     1.211056980185    -0.890894818914     1.007825032230
         C            0.352843183826     0.922279778811     0.000121433066    12.000000000000
         H            0.838765513619     1.892385219015     0.000323926484     1.007825032230
         O            0.767472500946     0.000221909288    -1.027353744585    15.994914619570
         C            0.352982201279    -0.922223882652    -0.000164540531    12.000000000000
         H            0.839056301657    -1.892252448831    -0.000271664132     1.007825032230
         O            0.767258512109    -0.000102733068     1.027397821213    15.994914619570

  Running in c1 symmetry.

  Rotational constants: A =      0.19853  B =      0.16230  C =      0.14677 [cm^-1]
  Rotational constants: A =   5951.69372  B =   4865.71171  C =   4399.98565 [MHz]
  Nuclear repulsion =  257.017533995355905

  Charge       = 0
  Multiplicity = 1
  Electrons    = 46
  Nalpha       = 23
  Nbeta        = 23

  ==> Algorithm <==

  SCF Algorithm Type is DF.
  DIIS enabled.
  MOM disabled.
  Fractional occupation disabled.
  Guess Type is SAD.
  Energy threshold   = 1.00e-10
  Density threshold  = 1.00e-10
  Integral threshold = 0.00e+00

  ==> Primary Basis <==

  Basis Set: HEAVY-AUG-CC-PV(Q+D)Z
    Blend: HEAVY-AUG-CC-PV(Q+D)Z
    Number of shells: 180
    Number of basis function: 660
    Number of Cartesian functions: 840
    Spherical Harmonics?: true
    Max angular momentum: 4

   => Loading Basis Set <=

    Name: (HEAVY-AUG-CC-PV(Q+D)Z AUX)
    Role: JKFIT
    Keyword: DF_BASIS_SCF
    atoms 1, 4, 7, 10     entry C          line   214 file /opt/psi/4/master/share/psi4/basis/heavy-aug-cc-pvqz-jkfit.gbs 
    atoms 2-3, 5-6, 8, 11 entry H          line   116 file /opt/psi/4/master/share/psi4/basis/heavy-aug-cc-pvqz-jkfit.gbs 
    atoms 9, 12           entry O          line   354 file /opt/psi/4/master/share/psi4/basis/heavy-aug-cc-pvqz-jkfit.gbs 


  Computing basis projection from PCSEG-0 to HEAVY-AUG-CC-PV(Q+D)Z

  ==> Integral Setup <==

  ==> DiskDFJK: Density-Fitted J/K Matrices <==

    J tasked:                  Yes
    K tasked:                  Yes
    wK tasked:                  No
    OpenMP threads:              4
    Integrals threads:           4
    Memory [MiB]:              375
    Algorithm:                Disk
    Integral Cache:           NONE
    Schwarz Cutoff:          1E-12
    Fitting Condition:       1E-10

   => Auxiliary Basis Set <=

  Basis Set: (HEAVY-AUG-CC-PV(Q+D)Z AUX)
    Blend: HEAVY-AUG-CC-PVQZ-JKFIT
    Number of shells: 282
    Number of basis function: 1158
    Number of Cartesian functions: 1584
    Spherical Harmonics?: true
    Max angular momentum: 5

  Minimum eigenvalue in the overlap matrix is 1.0920951335E-06.
  Reciprocal condition number of the overlap matrix is 7.0025683702E-08.
    Using symmetric orthogonalization.

  ==> Pre-Iterations <==

  SCF Guess: Orbitals guess was supplied from a previous computation.

   -------------------------
    Irrep   Nso     Nmo    
   -------------------------
     A        660     660 
   -------------------------
    Total     660     660
   -------------------------

  ==> Iterations <==

                           Total Energy        Delta E     RMS |[F,P]|

   @DF-RHF iter   0:  -304.22243625064499   -3.04222e+02   4.48100e-03 
   @DF-RHF iter   1:  -304.73374524367841   -5.11309e-01   3.36569e-04 DIIS
   @DF-RHF iter   2:  -304.74977320239367   -1.60280e-02   1.53648e-04 DIIS
   @DF-RHF iter   3:  -304.75364423484336   -3.87103e-03   2.81165e-05 DIIS
   @DF-RHF iter   4:  -304.75392115588699   -2.76921e-04   8.45532e-06 DIIS
   @DF-RHF iter   5:  -304.75394343528916   -2.22794e-05   3.57704e-06 DIIS
   @DF-RHF iter   6:  -304.75394723984675   -3.80456e-06   8.40737e-07 DIIS
   @DF-RHF iter   7:  -304.75394754868114   -3.08834e-07   1.79348e-07 DIIS
   @DF-RHF iter   8:  -304.75394756372663   -1.50455e-08   4.57189e-08 DIIS
   @DF-RHF iter   9:  -304.75394756481705   -1.09043e-09   1.48923e-08 DIIS
   @DF-RHF iter  10:  -304.75394756490459   -8.75389e-11   3.82316e-09 DIIS
   @DF-RHF iter  11:  -304.75394756491227   -7.67386e-12   9.81841e-10 DIIS
   @DF-RHF iter  12:  -304.75394756491278   -5.11591e-13   2.84846e-10 DIIS
   @DF-RHF iter  13:  -304.75394756491323   -4.54747e-13   6.28777e-11 DIIS
  Energy and wave function converged.


  ==> Post-Iterations <==

    Orbital Energies [Eh]
    ---------------------

    Doubly Occupied:                                                      

       1A    -20.565172     2A    -20.565131     3A    -11.348538  
       4A    -11.348511     5A    -11.236506     6A    -11.235882  
       7A     -1.490810     8A     -1.292201     9A     -1.067471  
      10A     -0.987961    11A     -0.810461    12A     -0.789549  
      13A     -0.746628    14A     -0.672479    15A     -0.651304  
      16A     -0.646603    17A     -0.534306    18A     -0.524562  
      19A     -0.519593    20A     -0.512232    21A     -0.510191  
      22A     -0.459715    23A     -0.433686  

    Virtual:                                                              

      24A      0.041400    25A      0.042851    26A      0.050666  
      27A      0.062629    28A      0.063923    29A      0.079821  
      30A      0.080142    31A      0.083443    32A      0.101437  
      33A      0.110249    34A      0.111678    35A      0.112245  
      36A      0.139344    37A      0.151644    38A      0.166282  
      39A      0.171439    40A      0.178468    41A      0.178826  
      42A      0.188837    43A      0.188975    44A      0.199063  
      45A      0.207296    46A      0.226474    47A      0.227212  
      48A      0.229692    49A      0.257264    50A      0.260929  
      51A      0.270284    52A      0.270876    53A      0.271819  
      54A      0.286602    55A      0.288181    56A      0.291071  
      57A      0.301088    58A      0.316670    59A      0.320018  
      60A      0.325071    61A      0.333748    62A      0.337661  
      63A      0.355672    64A      0.358156    65A      0.369551  
      66A      0.380992    67A      0.388146    68A      0.389582  
      69A      0.391564    70A      0.391741    71A      0.395731  
      72A      0.398874    73A      0.412356    74A      0.420392  
      75A      0.420664    76A      0.440279    77A      0.453060  
      78A      0.456221    79A      0.462777    80A      0.495145  
      81A      0.515285    82A      0.518850    83A      0.522916  
      84A      0.528510    85A      0.550768    86A      0.571913  
      87A      0.574339    88A      0.585342    89A      0.589245  
      90A      0.598562    91A      0.600215    92A      0.613353  
      93A      0.629277    94A      0.641334    95A      0.653791  
      96A      0.659980    97A      0.684932    98A      0.689004  
      99A      0.695882   100A      0.704782   101A      0.716140  
     102A      0.716692   103A      0.732394   104A      0.743524  
     105A      0.757805   106A      0.764578   107A      0.790027  
     108A      0.790305   109A      0.794259   110A      0.795474  
     111A      0.827288   112A      0.832147   113A      0.833137  
     114A      0.849314   115A      0.860841   116A      0.875705  
     117A      0.884496   118A      0.897046   119A      0.920103  
     120A      0.938703   121A      0.947532   122A      0.957878  
     123A      0.961194   124A      0.988501   125A      1.002335  
     126A      1.010176   127A      1.011345   128A      1.016001  
     129A      1.034086   130A      1.035425   131A      1.046778  
     132A      1.062568   133A      1.070108   134A      1.075572  
     135A      1.096495   136A      1.114724   137A      1.128880  
     138A      1.140300   139A      1.155011   140A      1.159093  
     141A      1.160300   142A      1.166402   143A      1.168862  
     144A      1.176058   145A      1.191295   146A      1.198141  
     147A      1.208944   148A      1.222015   149A      1.229515  
     150A      1.234651   151A      1.238485   152A      1.239530  
     153A      1.245061   154A      1.276485   155A      1.276911  
     156A      1.287904   157A      1.288197   158A      1.306497  
     159A      1.314881   160A      1.327822   161A      1.370839  
     162A      1.371361   163A      1.408037   164A      1.409144  
     165A      1.437087   166A      1.442751   167A      1.459033  
     168A      1.469754   169A      1.474909   170A      1.485569  
     171A      1.491252   172A      1.508598   173A      1.525497  
     174A      1.534827   175A      1.544165   176A      1.593321  
     177A      1.594343   178A      1.618384   179A      1.620265  
     180A      1.625426   181A      1.626407   182A      1.647955  
     183A      1.682881   184A      1.687755   185A      1.699122  
     186A      1.723497   187A      1.728507   188A      1.730945  
     189A      1.757340   190A      1.775817   191A      1.776160  
     192A      1.814902   193A      1.865639   194A      1.870843  
     195A      1.885926   196A      1.900982   197A      1.911939  
     198A      1.923895   199A      1.961048   200A      1.968457  
     201A      1.996998   202A      1.997213   203A      2.018111  
     204A      2.026372   205A      2.026674   206A      2.028372  
     207A      2.032949   208A      2.039777   209A      2.043990  
     210A      2.106848   211A      2.116450   212A      2.125123  
     213A      2.142090   214A      2.143440   215A      2.174032  
     216A      2.188047   217A      2.188121   218A      2.209236  
     219A      2.249251   220A      2.258605   221A      2.265930  
     222A      2.293708   223A      2.293823   224A      2.306562  
     225A      2.335759   226A      2.341603   227A      2.359157  
     228A      2.363279   229A      2.366778   230A      2.373367  
     231A      2.389030   232A      2.395837   233A      2.403177  
     234A      2.418908   235A      2.441385   236A      2.442695  
     237A      2.462717   238A      2.485347   239A      2.492562  
     240A      2.517445   241A      2.526416   242A      2.533288  
     243A      2.548399   244A      2.560075   245A      2.584291  
     246A      2.587444   247A      2.621302   248A      2.626398  
     249A      2.633826   250A      2.645270   251A      2.660679  
     252A      2.682641   253A      2.705945   254A      2.714384  
     255A      2.729299   256A      2.731053   257A      2.751333  
     258A      2.763634   259A      2.764097   260A      2.801512  
     261A      2.803346   262A      2.812128   263A      2.832328  
     264A      2.858333   265A      2.866714   266A      2.918998  
     267A      2.935328   268A      2.941255   269A      2.966810  
     270A      2.974880   271A      2.986910   272A      2.987162  
     273A      3.009628   274A      3.031730   275A      3.041231  
     276A      3.048556   277A      3.074934   278A      3.076527  
     279A      3.084306   280A      3.104166   281A      3.109830  
     282A      3.136786   283A      3.143064   284A      3.153633  
     285A      3.170089   286A      3.187663   287A      3.223579  
     288A      3.248247   289A      3.259722   290A      3.268328  
     291A      3.288136   292A      3.293029   293A      3.320308  
     294A      3.362834   295A      3.367102   296A      3.394960  
     297A      3.398284   298A      3.402729   299A      3.431567  
     300A      3.453366   301A      3.464711   302A      3.474867  
     303A      3.501984   304A      3.524352   305A      3.535939  
     306A      3.549377   307A      3.572122   308A      3.598414  
     309A      3.610063   310A      3.618617   311A      3.636144  
     312A      3.661525   313A      3.690936   314A      3.706789  
     315A      3.717224   316A      3.746958   317A      3.752853  
     318A      3.757233   319A      3.805663   320A      3.834545  
     321A      3.843353   322A      3.843993   323A      3.873392  
     324A      3.908647   325A      3.909331   326A      3.917601  
     327A      3.950516   328A      3.962846   329A      3.982548  
     330A      4.040805   331A      4.041439   332A      4.048906  
     333A      4.060910   334A      4.085282   335A      4.099728  
     336A      4.119985   337A      4.134720   338A      4.157233  
     339A      4.173062   340A      4.202847   341A      4.206372  
     342A      4.217852   343A      4.238388   344A      4.246177  
     345A      4.273485   346A      4.292654   347A      4.317403  
     348A      4.331555   349A      4.336569   350A      4.357425  
     351A      4.406411   352A      4.426978   353A      4.439790  
     354A      4.452237   355A      4.460079   356A      4.489795  
     357A      4.497897   358A      4.512061   359A      4.517879  
     360A      4.541114   361A      4.568999   362A      4.593874  
     363A      4.627384   364A      4.652774   365A      4.669522  
     366A      4.691715   367A      4.696696   368A      4.698584  
     369A      4.718642   370A      4.736938   371A      4.750531  
     372A      4.761707   373A      4.787726   374A      4.824045  
     375A      4.824157   376A      4.826941   377A      4.844634  
     378A      4.846518   379A      4.901013   380A      4.942479  
     381A      4.976769   382A      5.000687   383A      5.000885  
     384A      5.021312   385A      5.059213   386A      5.122822  
     387A      5.154872   388A      5.164210   389A      5.182979  
     390A      5.237113   391A      5.244983   392A      5.253111  
     393A      5.277138   394A      5.289579   395A      5.304922  
     396A      5.342149   397A      5.358051   398A      5.374677  
     399A      5.407729   400A      5.488885   401A      5.512739  
     402A      5.555421   403A      5.582538   404A      5.626986  
     405A      5.647067   406A      5.649248   407A      5.669341  
     408A      5.782264   409A      5.821853   410A      5.828863  
     411A      5.837511   412A      5.897851   413A      5.973230  
     414A      6.030406   415A      6.102656   416A      6.137717  
     417A      6.193596   418A      6.214412   419A      6.228067  
     420A      6.236502   421A      6.292806   422A      6.335528  
     423A      6.338392   424A      6.345793   425A      6.366669  
     426A      6.398257   427A      6.417309   428A      6.459387  
     429A      6.490298   430A      6.496318   431A      6.512272  
     432A      6.521864   433A      6.530875   434A      6.577233  
     435A      6.586701   436A      6.612112   437A      6.638829  
     438A      6.644250   439A      6.656951   440A      6.680378  
     441A      6.700050   442A      6.700904   443A      6.716955  
     444A      6.748587   445A      6.765689   446A      6.782589  
     447A      6.814624   448A      6.821458   449A      6.855304  
     450A      6.885707   451A      6.913383   452A      6.914722  
     453A      6.921590   454A      6.925818   455A      6.938105  
     456A      6.977737   457A      6.989453   458A      7.010889  
     459A      7.039381   460A      7.093267   461A      7.101840  
     462A      7.104645   463A      7.134806   464A      7.153324  
     465A      7.179172   466A      7.195089   467A      7.196764  
     468A      7.219131   469A      7.221686   470A      7.249843  
     471A      7.277141   472A      7.304103   473A      7.352899  
     474A      7.359300   475A      7.368074   476A      7.418195  
     477A      7.430616   478A      7.437273   479A      7.469795  
     480A      7.529102   481A      7.542958   482A      7.583976  
     483A      7.600421   484A      7.605146   485A      7.635892  
     486A      7.707328   487A      7.731340   488A      7.741404  
     489A      7.751368   490A      7.782995   491A      7.802369  
     492A      7.833384   493A      7.841291   494A      7.843570  
     495A      7.918659   496A      7.936563   497A      7.943616  
     498A      7.986569   499A      7.996749   500A      8.014375  
     501A      8.016233   502A      8.042326   503A      8.084720  
     504A      8.105586   505A      8.146060   506A      8.155890  
     507A      8.190726   508A      8.194101   509A      8.322867  
     510A      8.326727   511A      8.335130   512A      8.351721  
     513A      8.379353   514A      8.408479   515A      8.413034  
     516A      8.478695   517A      8.496191   518A      8.498385  
     519A      8.531976   520A      8.553914   521A      8.557623  
     522A      8.586627   523A      8.609506   524A      8.611835  
     525A      8.649792   526A      8.687403   527A      8.707313  
     528A      8.716264   529A      8.763437   530A      8.814108  
     531A      8.826433   532A      8.837993   533A      8.841075  
     534A      8.841449   535A      8.879720   536A      8.900607  
     537A      8.903902   538A      8.937125   539A      8.957790  
     540A      8.993686   541A      9.015900   542A      9.027819  
     543A      9.034178   544A      9.048710   545A      9.055721  
     546A      9.085997   547A      9.110691   548A      9.117181  
     549A      9.172067   550A      9.176000   551A      9.190659  
     552A      9.234932   553A      9.250178   554A      9.315904  
     555A      9.343369   556A      9.351636   557A      9.353459  
     558A      9.367128   559A      9.401104   560A      9.453352  
     561A      9.497872   562A      9.513183   563A      9.526543  
     564A      9.558022   565A      9.650119   566A      9.658709  
     567A      9.727991   568A      9.756276   569A      9.768906  
     570A      9.790440   571A      9.835241   572A      9.899966  
     573A      9.921228   574A      9.931141   575A      9.961284  
     576A     10.069305   577A     10.117913   578A     10.234816  
     579A     10.242432   580A     10.258654   581A     10.295000  
     582A     10.418741   583A     10.480419   584A     10.507450  
     585A     10.510382   586A     10.593088   587A     10.629408  
     588A     10.643312   589A     10.780609   590A     10.796078  
     591A     10.826428   592A     10.829106   593A     10.974631  
     594A     11.003566   595A     11.063290   596A     11.071966  
     597A     11.101708   598A     11.106147   599A     11.130865  
     600A     11.154785   601A     11.162329   602A     11.209813  
     603A     11.225901   604A     11.252070   605A     11.334401  
     606A     11.383709   607A     11.452946   608A     11.456678  
     609A     11.494615   610A     11.498983   611A     11.508262  
     612A     11.542519   613A     11.619465   614A     11.646455  
     615A     11.721930   616A     11.813796   617A     11.820060  
     618A     11.847506   619A     11.885862   620A     11.907984  
     621A     12.198886   622A     12.253638   623A     12.316615  
     624A     12.378693   625A     12.640927   626A     12.651416  
     627A     12.825477   628A     12.870028   629A     12.964644  
     630A     13.028547   631A     13.075979   632A     13.076127  
     633A     13.184334   634A     13.242974   635A     13.261167  
     636A     13.354624   637A     13.357549   638A     13.386713  
     639A     13.422638   640A     13.512517   641A     13.523506  
     642A     13.532763   643A     13.717887   644A     13.737268  
     645A     13.789347   646A     13.813465   647A     13.846812  
     648A     13.909101   649A     13.968799   650A     13.979405  
     651A     14.123354   652A     14.155152   653A     14.690362  
     654A     14.883943   655A     27.255383   656A     27.849470  
     657A     28.050314   658A     28.617513   659A     44.796862  
     660A     45.695872  

    Final Occupation by Irrep:
              A 
    DOCC [    23 ]

  @DF-RHF Final Energy:  -304.75394756491323

   => Energetics <=

    Nuclear Repulsion Energy =            257.0175339953559046
    One-Electron Energy =                -925.6439801470188513
    Two-Electron Energy =                 363.8724985867497708
    Total Energy =                       -304.7539475649132328

Computation Completed


Properties will be evaluated at   0.000000,   0.000000,   0.000000 [a0]

Properties computed using the SCF density matrix

  Nuclear Dipole Moment: [e a0]
     X:    -4.4919      Y:    -0.0004      Z:     0.0018

  Electronic Dipole Moment: [e a0]
     X:     3.7197      Y:    -0.0001      Z:    -0.0021

  Dipole Moment: [e a0]
     X:    -0.7723      Y:    -0.0005      Z:    -0.0004     Total:     0.7723

  Dipole Moment: [D]
     X:    -1.9629      Y:    -0.0013      Z:    -0.0009     Total:     1.9629


*** tstop() called on n087 at Mon Jun  8 14:56:17 2020
Module time:
	user time   =     155.61 seconds =       2.59 minutes
	system time =       5.74 seconds =       0.10 minutes
	total time  =         42 seconds =       0.70 minutes
Total time:
	user time   =     155.61 seconds =       2.59 minutes
	system time =       5.74 seconds =       0.10 minutes
	total time  =         42 seconds =       0.70 minutes

*** tstart() called on n087
*** at Mon Jun  8 14:56:17 2020


  //>>>>>>>>>>>>>>>>>>>>>>>>>>>>>>>>>>>//
  //               DFMP2               //
  //<<<<<<<<<<<<<<<<<<<<<<<<<<<<<<<<<<<//

   => Loading Basis Set <=

    Name: (HEAVY-AUG-CC-PV(Q+D)Z AUX)
    Role: RIFIT
    Keyword: DF_BASIS_MP2
    atoms 1, 4, 7, 10     entry C          line   180 file /opt/psi/4/master/share/psi4/basis/heavy-aug-cc-pvqz-ri.gbs 
    atoms 2-3, 5-6, 8, 11 entry H          line    44 file /opt/psi/4/master/share/psi4/basis/heavy-aug-cc-pvqz-ri.gbs 
    atoms 9, 12           entry O          line   328 file /opt/psi/4/master/share/psi4/basis/heavy-aug-cc-pvqz-ri.gbs 

	 --------------------------------------------------------
	                          DF-MP2                         
	      2nd-Order Density-Fitted Moller-Plesset Theory     
	              RMP2 Wavefunction,   4 Threads             
	                                                         
	        Rob Parrish, Justin Turney, Andy Simmonett,      
	           Ed Hohenstein, and C. David Sherrill          
	 --------------------------------------------------------

   => Auxiliary Basis Set <=

  Basis Set: (HEAVY-AUG-CC-PV(Q+D)Z AUX)
    Blend: HEAVY-AUG-CC-PVQZ-RI
    Number of shells: 306
    Number of basis function: 1338
    Number of Cartesian functions: 1842
    Spherical Harmonics?: true
    Max angular momentum: 5

	 --------------------------------------------------------
	                 NBF =   660, NAUX =  1338
	 --------------------------------------------------------
	   CLASS    FOCC     OCC    AOCC    AVIR     VIR    FVIR
	   PAIRS       6      23      17     637     637       0
	 --------------------------------------------------------

	-----------------------------------------------------------
	 ==================> DF-MP2 Energies <==================== 
	-----------------------------------------------------------
	 Reference Energy          =    -304.7539475649132328 [Eh]
	 Singles Energy            =      -0.0000000000000000 [Eh]
	 Same-Spin Energy          =      -0.2941232868224898 [Eh]
	 Opposite-Spin Energy      =      -0.9238257704218208 [Eh]
	 Correlation Energy        =      -1.2179490572443106 [Eh]
	 Total Energy              =    -305.9718966221575442 [Eh]
	-----------------------------------------------------------
	 ================> DF-SCS-MP2 Energies <================== 
	-----------------------------------------------------------
	 SCS Same-Spin Scale       =       0.3333333333333333 [-]
	 SCS Opposite-Spin Scale   =       1.2000000000000000 [-]
	 SCS Same-Spin Energy      =      -0.0980410956074966 [Eh]
	 SCS Opposite-Spin Energy  =      -1.1085909245061849 [Eh]
	 SCS Correlation Energy    =      -1.2066320201136815 [Eh]
	 SCS Total Energy          =    -305.9605795850268919 [Eh]
	-----------------------------------------------------------


*** tstop() called on n087 at Mon Jun  8 14:56:24 2020
Module time:
	user time   =      28.07 seconds =       0.47 minutes
	system time =       0.25 seconds =       0.00 minutes
	total time  =          7 seconds =       0.12 minutes
Total time:
	user time   =     183.69 seconds =       3.06 minutes
	system time =       5.99 seconds =       0.10 minutes
	total time  =         49 seconds =       0.82 minutes

========================OPTAVC-XTPL==========================

MP2/QZ correlation energy -1.2179490572443106
SCF/QZ reference energy -304.75394756491323


=============================================================

Scratch directory: /tmp/

Scratch directory: /tmp/
    SCF Algorithm Type (re)set to DF.

*** tstart() called on n087
*** at Mon Jun  8 14:56:25 2020


  //>>>>>>>>>>>>>>>>>>>>>>>>>>>>>>>>>>>//
  //      Guess SCF, pcseg-0 Basis     //
  //<<<<<<<<<<<<<<<<<<<<<<<<<<<<<<<<<<<//

   => Loading Basis Set <=

    Name: PCSEG-0
    Role: ORBITAL
    Keyword: BASIS
    atoms 1, 4, 7, 10     entry C          line    71 file /opt/psi/4/master/share/psi4/basis/pcseg-0.gbs 
    atoms 2-3, 5-6, 8, 11 entry H          line    13 file /opt/psi/4/master/share/psi4/basis/pcseg-0.gbs 
    atoms 9, 12           entry O          line   103 file /opt/psi/4/master/share/psi4/basis/pcseg-0.gbs 


         ---------------------------------------------------------
                           SCF Castup computation                  
         ---------------------------------------------------------
                                   SCF
               by Justin Turney, Rob Parrish, Andy Simmonett
                          and Daniel G. A. Smith
                              RHF Reference
                        4 Threads,    500 MiB Core
         ---------------------------------------------------------

  ==> Geometry <==

    Molecular point group: c1
    Full point group: C1

    Geometry (in Angstrom), charge = 0, multiplicity = 1:

       Center              X                  Y                   Z               Mass       
    ------------   -----------------  -----------------  -----------------  -----------------
         C           -1.174143750690    -0.774963495581    -0.000122054786    12.000000000000
         H           -1.619161817890    -1.211058947381    -0.888547315654     1.007825032230
         H           -1.619297713098    -1.211304443519     0.890442513253     1.007825032230
         C           -1.174258964001     0.774783509766    -0.000053339540    12.000000000000
         H           -1.619469338444     1.210759741733     0.890849494293     1.007825032230
         H           -1.619300986033     1.211056980185    -0.890894818914     1.007825032230
         C            0.352843183826     0.922279778811     0.000121433066    12.000000000000
         H            0.838765513619     1.892385219015     0.000323926484     1.007825032230
         O            0.767472500946     0.000221909288    -1.027353744585    15.994914619570
         C            0.352982201279    -0.922223882652    -0.000164540531    12.000000000000
         H            0.839056301657    -1.892252448831    -0.000271664132     1.007825032230
         O            0.767258512109    -0.000102733068     1.027397821213    15.994914619570

  Running in c1 symmetry.

  Rotational constants: A =      0.19853  B =      0.16230  C =      0.14677 [cm^-1]
  Rotational constants: A =   5951.69372  B =   4865.71171  C =   4399.98565 [MHz]
  Nuclear repulsion =  257.017533995355905

  Charge       = 0
  Multiplicity = 1
  Electrons    = 46
  Nalpha       = 23
  Nbeta        = 23

  ==> Algorithm <==

  SCF Algorithm Type is DF.
  DIIS enabled.
  MOM disabled.
  Fractional occupation disabled.
  Guess Type is SAD.
  Energy threshold   = 1.00e-10
  Density threshold  = 1.00e-10
  Integral threshold = 0.00e+00

  ==> Primary Basis <==

  Basis Set: PCSEG-0
    Blend: PCSEG-0
    Number of shells: 42
    Number of basis function: 66
    Number of Cartesian functions: 66
    Spherical Harmonics?: true
    Max angular momentum: 1

   => Loading Basis Set <=

    Name: (PCSEG-0 AUX)
    Role: JKFIT
    Keyword: DF_BASIS_SCF
    atoms 1, 4, 7, 10     entry C          line   198 file /opt/psi/4/master/share/psi4/basis/def2-universal-jkfit.gbs 
    atoms 2-3, 5-6, 8, 11 entry H          line    18 file /opt/psi/4/master/share/psi4/basis/def2-universal-jkfit.gbs 
    atoms 9, 12           entry O          line   318 file /opt/psi/4/master/share/psi4/basis/def2-universal-jkfit.gbs 

  ==> Integral Setup <==

  ==> DiskDFJK: Density-Fitted J/K Matrices <==

    J tasked:                  Yes
    K tasked:                  Yes
    wK tasked:                  No
    OpenMP threads:              4
    Integrals threads:           4
    Memory [MiB]:              375
    Algorithm:                Core
    Integral Cache:           NONE
    Schwarz Cutoff:          1E-12
    Fitting Condition:       1E-10

   => Auxiliary Basis Set <=

  Basis Set: (PCSEG-0 AUX)
    Blend: DEF2-UNIVERSAL-JKFIT
    Number of shells: 186
    Number of basis function: 562
    Number of Cartesian functions: 662
    Spherical Harmonics?: true
    Max angular momentum: 4

  Minimum eigenvalue in the overlap matrix is 1.2859480501E-03.
  Reciprocal condition number of the overlap matrix is 2.1237793267E-04.
    Using symmetric orthogonalization.

  ==> Pre-Iterations <==

  SCF Guess: Superposition of Atomic Densities via on-the-fly atomic UHF (no occupation information).

   -------------------------
    Irrep   Nso     Nmo    
   -------------------------
     A         66      66 
   -------------------------
    Total      66      66
   -------------------------

  ==> Iterations <==

                           Total Energy        Delta E     RMS |[F,P]|

   @DF-RHF iter SAD:  -303.69701486977283   -3.03697e+02   0.00000e+00 
   @DF-RHF iter   1:  -303.56574038823146    1.31274e-01   7.24132e-03 DIIS
   @DF-RHF iter   2:  -303.66481159590290   -9.90712e-02   3.96897e-03 DIIS
   @DF-RHF iter   3:  -303.69042797859765   -2.56164e-02   6.19917e-04 DIIS
   @DF-RHF iter   4:  -303.69161317607643   -1.18520e-03   1.96512e-04 DIIS
   @DF-RHF iter   5:  -303.69170898935118   -9.58133e-05   4.10568e-05 DIIS
   @DF-RHF iter   6:  -303.69171658348466   -7.59413e-06   8.37903e-06 DIIS
   @DF-RHF iter   7:  -303.69171698644715   -4.02962e-07   1.68597e-06 DIIS
   @DF-RHF iter   8:  -303.69171700053823   -1.40911e-08   5.41707e-07 DIIS
   @DF-RHF iter   9:  -303.69171700195295   -1.41472e-09   1.09388e-07 DIIS
   @DF-RHF iter  10:  -303.69171700202912   -7.61702e-11   1.90044e-08 DIIS
   @DF-RHF iter  11:  -303.69171700203128   -2.16005e-12   5.41845e-09 DIIS
   @DF-RHF iter  12:  -303.69171700203128    0.00000e+00   2.36179e-09 DIIS
   @DF-RHF iter  13:  -303.69171700203145   -1.70530e-13   2.30149e-10 DIIS
   @DF-RHF iter  14:  -303.69171700203128    1.70530e-13   7.65179e-11 DIIS
  Energy and wave function converged.


  ==> Post-Iterations <==

    Orbital Energies [Eh]
    ---------------------

    Doubly Occupied:                                                      

       1A    -20.584513     2A    -20.584449     3A    -11.369606  
       4A    -11.369601     5A    -11.256051     6A    -11.255581  
       7A     -1.537530     8A     -1.312951     9A     -1.091831  
      10A     -1.008944    11A     -0.822074    12A     -0.790220  
      13A     -0.768315    14A     -0.680687    15A     -0.663016  
      16A     -0.658490    17A     -0.552334    18A     -0.534566  
      19A     -0.527375    20A     -0.524571    21A     -0.519575  
      22A     -0.467013    23A     -0.443240  

    Virtual:                                                              

      24A      0.203149    25A      0.231289    26A      0.236118  
      27A      0.242185    28A      0.253178    29A      0.267385  
      30A      0.314476    31A      0.350252    32A      0.350986  
      33A      0.382107    34A      0.406826    35A      0.464620  
      36A      0.570330    37A      0.796457    38A      0.807976  
      39A      0.820529    40A      0.925817    41A      0.932911  
      42A      0.947037    43A      0.950261    44A      1.003385  
      45A      1.005096    46A      1.030094    47A      1.060663  
      48A      1.072115    49A      1.134318    50A      1.149110  
      51A      1.170480    52A      1.174338    53A      1.211274  
      54A      1.238197    55A      1.423838    56A      1.454957  
      57A      1.482507    58A      1.522012    59A      1.691063  
      60A      1.705484    61A      1.927930    62A      1.950931  
      63A      2.140041    64A      2.299083    65A      2.374978  
      66A      2.441160  

    Final Occupation by Irrep:
              A 
    DOCC [    23 ]

  @DF-RHF Final Energy:  -303.69171700203128

   => Energetics <=

    Nuclear Repulsion Energy =            257.0175339953559046
    One-Electron Energy =                -922.7734343795266341
    Two-Electron Energy =                 362.0641833821393902
    Total Energy =                       -303.6917170020312824

Computation Completed

  //>>>>>>>>>>>>>>>>>>>>>>>>>>>>>>>>>>>//
  //                SCF                //
  //<<<<<<<<<<<<<<<<<<<<<<<<<<<<<<<<<<<//

   => Loading Basis Set <=

    Name: HEAVY-AUG-CC-PV(T+D)Z
    Role: ORBITAL
    Keyword: BASIS
    atoms 1, 4, 7, 10     entry C          line   273 file /opt/psi/4/master/share/psi4/basis/heavy-aug-cc-pv_tpd_z.gbs 
    atoms 2-3, 5-6, 8, 11 entry H          line    86 file /opt/psi/4/master/share/psi4/basis/heavy-aug-cc-pv_tpd_z.gbs 
    atoms 9, 12           entry O          line   365 file /opt/psi/4/master/share/psi4/basis/heavy-aug-cc-pv_tpd_z.gbs 


         ---------------------------------------------------------
                                   SCF
               by Justin Turney, Rob Parrish, Andy Simmonett
                          and Daniel G. A. Smith
                              RHF Reference
                        4 Threads,    500 MiB Core
         ---------------------------------------------------------

  ==> Geometry <==

    Molecular point group: c1
    Full point group: C1

    Geometry (in Angstrom), charge = 0, multiplicity = 1:

       Center              X                  Y                   Z               Mass       
    ------------   -----------------  -----------------  -----------------  -----------------
         C           -1.174143750690    -0.774963495581    -0.000122054786    12.000000000000
         H           -1.619161817890    -1.211058947381    -0.888547315654     1.007825032230
         H           -1.619297713098    -1.211304443519     0.890442513253     1.007825032230
         C           -1.174258964001     0.774783509766    -0.000053339540    12.000000000000
         H           -1.619469338444     1.210759741733     0.890849494293     1.007825032230
         H           -1.619300986033     1.211056980185    -0.890894818914     1.007825032230
         C            0.352843183826     0.922279778811     0.000121433066    12.000000000000
         H            0.838765513619     1.892385219015     0.000323926484     1.007825032230
         O            0.767472500946     0.000221909288    -1.027353744585    15.994914619570
         C            0.352982201279    -0.922223882652    -0.000164540531    12.000000000000
         H            0.839056301657    -1.892252448831    -0.000271664132     1.007825032230
         O            0.767258512109    -0.000102733068     1.027397821213    15.994914619570

  Running in c1 symmetry.

  Rotational constants: A =      0.19853  B =      0.16230  C =      0.14677 [cm^-1]
  Rotational constants: A =   5951.69372  B =   4865.71171  C =   4399.98565 [MHz]
  Nuclear repulsion =  257.017533995355905

  Charge       = 0
  Multiplicity = 1
  Electrons    = 46
  Nalpha       = 23
  Nbeta        = 23

  ==> Algorithm <==

  SCF Algorithm Type is DF.
  DIIS enabled.
  MOM disabled.
  Fractional occupation disabled.
  Guess Type is SAD.
  Energy threshold   = 1.00e-10
  Density threshold  = 1.00e-10
  Integral threshold = 0.00e+00

  ==> Primary Basis <==

  Basis Set: HEAVY-AUG-CC-PV(T+D)Z
    Blend: HEAVY-AUG-CC-PV(T+D)Z
    Number of shells: 120
    Number of basis function: 360
    Number of Cartesian functions: 420
    Spherical Harmonics?: true
    Max angular momentum: 3

   => Loading Basis Set <=

    Name: (HEAVY-AUG-CC-PV(T+D)Z AUX)
    Role: JKFIT
    Keyword: DF_BASIS_SCF
    atoms 1, 4, 7, 10     entry C          line   200 file /opt/psi/4/master/share/psi4/basis/heavy-aug-cc-pvtz-jkfit.gbs 
    atoms 2-3, 5-6, 8, 11 entry H          line   116 file /opt/psi/4/master/share/psi4/basis/heavy-aug-cc-pvtz-jkfit.gbs 
    atoms 9, 12           entry O          line   324 file /opt/psi/4/master/share/psi4/basis/heavy-aug-cc-pvtz-jkfit.gbs 


  Computing basis projection from PCSEG-0 to HEAVY-AUG-CC-PV(T+D)Z

  ==> Integral Setup <==

  ==> DiskDFJK: Density-Fitted J/K Matrices <==

    J tasked:                  Yes
    K tasked:                  Yes
    wK tasked:                  No
    OpenMP threads:              4
    Integrals threads:           4
    Memory [MiB]:              375
    Algorithm:                Disk
    Integral Cache:           NONE
    Schwarz Cutoff:          1E-12
    Fitting Condition:       1E-10

   => Auxiliary Basis Set <=

  Basis Set: (HEAVY-AUG-CC-PV(T+D)Z AUX)
    Blend: HEAVY-AUG-CC-PVTZ-JKFIT
    Number of shells: 240
    Number of basis function: 804
    Number of Cartesian functions: 996
    Spherical Harmonics?: true
    Max angular momentum: 4

  Minimum eigenvalue in the overlap matrix is 5.5320856001E-06.
  Reciprocal condition number of the overlap matrix is 4.0440897688E-07.
    Using symmetric orthogonalization.

  ==> Pre-Iterations <==

  SCF Guess: Orbitals guess was supplied from a previous computation.

   -------------------------
    Irrep   Nso     Nmo    
   -------------------------
     A        360     360 
   -------------------------
    Total     360     360
   -------------------------

  ==> Iterations <==

                           Total Energy        Delta E     RMS |[F,P]|

   @DF-RHF iter   0:  -304.36283591193273   -3.04363e+02   4.15923e-03 
   @DF-RHF iter   1:  -304.71639609935801   -3.53560e-01   5.72464e-04 DIIS
   @DF-RHF iter   2:  -304.73155491617803   -1.51588e-02   2.71761e-04 DIIS
   @DF-RHF iter   3:  -304.73524623269697   -3.69132e-03   4.87250e-05 DIIS
   @DF-RHF iter   4:  -304.73551004286429   -2.63810e-04   1.57888e-05 DIIS
   @DF-RHF iter   5:  -304.73553108798916   -2.10451e-05   6.25221e-06 DIIS
   @DF-RHF iter   6:  -304.73553498531652   -3.89733e-06   1.42039e-06 DIIS
   @DF-RHF iter   7:  -304.73553525088909   -2.65573e-07   3.12603e-07 DIIS
   @DF-RHF iter   8:  -304.73553526510869   -1.42196e-08   7.97154e-08 DIIS
   @DF-RHF iter   9:  -304.73553526604263   -9.33937e-10   2.59169e-08 DIIS
   @DF-RHF iter  10:  -304.73553526612739   -8.47535e-11   6.47415e-09 DIIS
   @DF-RHF iter  11:  -304.73553526613370   -6.30962e-12   1.69358e-09 DIIS
   @DF-RHF iter  12:  -304.73553526613512   -1.42109e-12   4.84153e-10 DIIS
   @DF-RHF iter  13:  -304.73553526613426    8.52651e-13   1.08342e-10 DIIS
   @DF-RHF iter  14:  -304.73553526613478   -5.11591e-13   5.58119e-11 DIIS
  Energy and wave function converged.


  ==> Post-Iterations <==

    Orbital Energies [Eh]
    ---------------------

    Doubly Occupied:                                                      

       1A    -20.568118     2A    -20.568078     3A    -11.349639  
       4A    -11.349614     5A    -11.237589     6A    -11.236967  
       7A     -1.491617     8A     -1.292998     9A     -1.067721  
      10A     -0.988242    11A     -0.810556    12A     -0.789708  
      13A     -0.746585    14A     -0.672380    15A     -0.651325  
      16A     -0.646455    17A     -0.534231    18A     -0.524406  
      19A     -0.519461    20A     -0.512158    21A     -0.509992  
      22A     -0.459451    23A     -0.433485  

    Virtual:                                                              

      24A      0.050336    25A      0.050946    26A      0.059702  
      27A      0.072055    28A      0.073423    29A      0.092446  
      30A      0.093543    31A      0.096710    32A      0.116633  
      33A      0.126306    34A      0.127401    35A      0.130070  
      36A      0.162102    37A      0.176066    38A      0.195258  
      39A      0.204146    40A      0.206504    41A      0.214145  
      42A      0.220416    43A      0.228366    44A      0.233850  
      45A      0.249422    46A      0.268530    47A      0.268605  
      48A      0.277123    49A      0.295378    50A      0.300761  
      51A      0.312936    52A      0.331198    53A      0.335375  
      54A      0.341762    55A      0.347792    56A      0.356311  
      57A      0.356960    58A      0.362601    59A      0.374781  
      60A      0.397703    61A      0.404464    62A      0.412750  
      63A      0.421296    64A      0.432412    65A      0.446456  
      66A      0.457851    67A      0.465027    68A      0.485340  
      69A      0.492968    70A      0.503842    71A      0.510908  
      72A      0.516717    73A      0.519762    74A      0.526995  
      75A      0.528728    76A      0.543730    77A      0.545940  
      78A      0.580867    79A      0.591987    80A      0.608328  
      81A      0.613191    82A      0.620793    83A      0.653822  
      84A      0.658716    85A      0.673200    86A      0.722133  
      87A      0.735935    88A      0.747572    89A      0.753835  
      90A      0.770359    91A      0.781032    92A      0.791225  
      93A      0.797155    94A      0.815673    95A      0.818668  
      96A      0.828145    97A      0.843985    98A      0.877693  
      99A      0.891313   100A      0.927001   101A      0.928729  
     102A      0.938649   103A      0.946020   104A      0.970443  
     105A      0.985554   106A      0.998672   107A      1.032130  
     108A      1.037071   109A      1.038550   110A      1.060326  
     111A      1.082310   112A      1.096365   113A      1.114191  
     114A      1.120865   115A      1.138305   116A      1.160764  
     117A      1.185509   118A      1.222941   119A      1.247512  
     120A      1.251754   121A      1.261110   122A      1.283272  
     123A      1.321813   124A      1.329826   125A      1.335777  
     126A      1.352856   127A      1.373714   128A      1.383777  
     129A      1.398662   130A      1.403730   131A      1.415201  
     132A      1.446611   133A      1.447646   134A      1.458064  
     135A      1.483445   136A      1.499125   137A      1.505778  
     138A      1.528560   139A      1.546575   140A      1.560239  
     141A      1.581695   142A      1.586301   143A      1.587211  
     144A      1.589221   145A      1.599975   146A      1.654200  
     147A      1.656766   148A      1.670272   149A      1.677286  
     150A      1.684133   151A      1.698826   152A      1.707843  
     153A      1.715719   154A      1.731823   155A      1.735635  
     156A      1.750511   157A      1.752249   158A      1.791945  
     159A      1.799886   160A      1.807232   161A      1.823018  
     162A      1.901453   163A      1.902268   164A      1.930486  
     165A      1.939592   166A      1.949822   167A      1.984651  
     168A      1.990667   169A      2.003265   170A      2.007752  
     171A      2.026894   172A      2.046553   173A      2.055258  
     174A      2.058643   175A      2.150684   176A      2.151525  
     177A      2.209237   178A      2.252408   179A      2.300708  
     180A      2.334098   181A      2.392364   182A      2.401413  
     183A      2.419772   184A      2.443642   185A      2.451016  
     186A      2.472214   187A      2.504081   188A      2.508348  
     189A      2.540658   190A      2.579535   191A      2.628594  
     192A      2.645602   193A      2.682193   194A      2.685929  
     195A      2.723812   196A      2.769187   197A      2.787726  
     198A      2.875382   199A      2.875560   200A      2.891000  
     201A      2.914252   202A      2.921526   203A      2.954036  
     204A      2.959173   205A      2.963759   206A      3.076288  
     207A      3.097843   208A      3.119318   209A      3.127894  
     210A      3.181273   211A      3.186297   212A      3.204971  
     213A      3.215762   214A      3.240282   215A      3.261377  
     216A      3.306777   217A      3.332600   218A      3.408640  
     219A      3.412320   220A      3.414875   221A      3.434601  
     222A      3.441106   223A      3.471893   224A      3.484410  
     225A      3.500947   226A      3.524497   227A      3.538775  
     228A      3.603038   229A      3.626464   230A      3.630527  
     231A      3.667301   232A      3.682904   233A      3.695568  
     234A      3.706248   235A      3.728465   236A      3.730152  
     237A      3.749163   238A      3.815942   239A      3.833049  
     240A      3.843180   241A      3.865938   242A      3.873828  
     243A      3.926847   244A      3.952237   245A      3.959946  
     246A      3.961594   247A      3.964716   248A      4.004009  
     249A      4.019195   250A      4.049130   251A      4.053669  
     252A      4.073967   253A      4.105433   254A      4.111874  
     255A      4.144899   256A      4.163367   257A      4.169845  
     258A      4.180333   259A      4.185812   260A      4.212139  
     261A      4.235130   262A      4.245220   263A      4.258780  
     264A      4.263855   265A      4.268123   266A      4.316698  
     267A      4.343650   268A      4.365768   269A      4.424985  
     270A      4.471469   271A      4.479698   272A      4.482392  
     273A      4.496092   274A      4.512259   275A      4.526582  
     276A      4.552924   277A      4.583790   278A      4.637898  
     279A      4.688599   280A      4.689676   281A      4.702343  
     282A      4.706367   283A      4.731193   284A      4.744460  
     285A      4.755991   286A      4.805941   287A      4.820866  
     288A      4.821458   289A      4.838494   290A      4.886147  
     291A      4.907917   292A      4.958741   293A      4.964036  
     294A      4.964707   295A      5.098026   296A      5.118228  
     297A      5.125355   298A      5.191255   299A      5.194278  
     300A      5.239257   301A      5.265951   302A      5.283561  
     303A      5.394506   304A      5.417964   305A      5.435244  
     306A      5.466890   307A      5.472973   308A      5.581397  
     309A      5.582648   310A      5.596824   311A      5.654825  
     312A      5.706484   313A      5.713552   314A      5.717801  
     315A      5.863645   316A      5.870031   317A      5.897897  
     318A      5.926252   319A      6.061025   320A      6.122490  
     321A      6.140911   322A      6.207235   323A      6.240905  
     324A      6.281654   325A      6.284525   326A      6.347901  
     327A      6.383426   328A      6.493993   329A      6.560612  
     330A      6.901427   331A      6.901713   332A      6.939445  
     333A      6.962650   334A      6.996089   335A      7.024378  
     336A      7.104666   337A      7.128384   338A      7.172258  
     339A      7.189545   340A      7.226343   341A      7.238117  
     342A      7.389184   343A      7.488057   344A      7.587930  
     345A      7.608716   346A      7.634356   347A      7.736837  
     348A      7.793236   349A      7.820868   350A      7.910862  
     351A      8.038040   352A      8.194515   353A      8.219713  
     354A      8.226944   355A     14.245418   356A     15.441231  
     357A     15.553800   358A     15.870146   359A     17.394217  
     360A     18.711815  

    Final Occupation by Irrep:
              A 
    DOCC [    23 ]

  @DF-RHF Final Energy:  -304.73553526613478

   => Energetics <=

    Nuclear Repulsion Energy =            257.0175339953559046
    One-Electron Energy =                -925.5845901396453428
    Two-Electron Energy =                 363.8315208781546062
    Total Energy =                       -304.7355352661347752

Computation Completed


Properties will be evaluated at   0.000000,   0.000000,   0.000000 [a0]

Properties computed using the SCF density matrix

  Nuclear Dipole Moment: [e a0]
     X:    -4.4919      Y:    -0.0004      Z:     0.0018

  Electronic Dipole Moment: [e a0]
     X:     3.7192      Y:    -0.0001      Z:    -0.0021

  Dipole Moment: [e a0]
     X:    -0.7727      Y:    -0.0005      Z:    -0.0004     Total:     0.7727

  Dipole Moment: [D]
     X:    -1.9640      Y:    -0.0013      Z:    -0.0009     Total:     1.9640


*** tstop() called on n087 at Mon Jun  8 14:56:34 2020
Module time:
	user time   =      32.31 seconds =       0.54 minutes
	system time =       1.58 seconds =       0.03 minutes
	total time  =          9 seconds =       0.15 minutes
Total time:
	user time   =     216.47 seconds =       3.61 minutes
	system time =       7.73 seconds =       0.13 minutes
	total time  =         59 seconds =       0.98 minutes

*** tstart() called on n087
*** at Mon Jun  8 14:56:34 2020


  //>>>>>>>>>>>>>>>>>>>>>>>>>>>>>>>>>>>//
  //               DFMP2               //
  //<<<<<<<<<<<<<<<<<<<<<<<<<<<<<<<<<<<//

   => Loading Basis Set <=

    Name: (HEAVY-AUG-CC-PV(T+D)Z AUX)
    Role: RIFIT
    Keyword: DF_BASIS_MP2
    atoms 1, 4, 7, 10     entry C          line   148 file /opt/psi/4/master/share/psi4/basis/heavy-aug-cc-pvtz-ri.gbs 
    atoms 2-3, 5-6, 8, 11 entry H          line    44 file /opt/psi/4/master/share/psi4/basis/heavy-aug-cc-pvtz-ri.gbs 
    atoms 9, 12           entry O          line   264 file /opt/psi/4/master/share/psi4/basis/heavy-aug-cc-pvtz-ri.gbs 

	 --------------------------------------------------------
	                          DF-MP2                         
	      2nd-Order Density-Fitted Moller-Plesset Theory     
	              RMP2 Wavefunction,   4 Threads             
	                                                         
	        Rob Parrish, Justin Turney, Andy Simmonett,      
	           Ed Hohenstein, and C. David Sherrill          
	 --------------------------------------------------------

   => Auxiliary Basis Set <=

  Basis Set: (HEAVY-AUG-CC-PV(T+D)Z AUX)
    Blend: HEAVY-AUG-CC-PVTZ-RI
    Number of shells: 228
    Number of basis function: 816
    Number of Cartesian functions: 1026
    Spherical Harmonics?: true
    Max angular momentum: 4

	 --------------------------------------------------------
	                 NBF =   360, NAUX =   816
	 --------------------------------------------------------
	   CLASS    FOCC     OCC    AOCC    AVIR     VIR    FVIR
	   PAIRS       6      23      17     337     337       0
	 --------------------------------------------------------

	-----------------------------------------------------------
	 ==================> DF-MP2 Energies <==================== 
	-----------------------------------------------------------
	 Reference Energy          =    -304.7355352661347752 [Eh]
	 Singles Energy            =      -0.0000000000000000 [Eh]
	 Same-Spin Energy          =      -0.2854782799220321 [Eh]
	 Opposite-Spin Energy      =      -0.8632950674593158 [Eh]
	 Correlation Energy        =      -1.1487733473813480 [Eh]
	 Total Energy              =    -305.8843086135161116 [Eh]
	-----------------------------------------------------------
	 ================> DF-SCS-MP2 Energies <================== 
	-----------------------------------------------------------
	 SCS Same-Spin Scale       =       0.3333333333333333 [-]
	 SCS Opposite-Spin Scale   =       1.2000000000000000 [-]
	 SCS Same-Spin Energy      =      -0.0951594266406774 [Eh]
	 SCS Opposite-Spin Energy  =      -1.0359540809511789 [Eh]
	 SCS Correlation Energy    =      -1.1311135075918564 [Eh]
	 SCS Total Energy          =    -305.8666487737266380 [Eh]
	-----------------------------------------------------------


*** tstop() called on n087 at Mon Jun  8 14:56:36 2020
Module time:
	user time   =       7.30 seconds =       0.12 minutes
	system time =       0.10 seconds =       0.00 minutes
	total time  =          2 seconds =       0.03 minutes
Total time:
	user time   =     223.78 seconds =       3.73 minutes
	system time =       7.83 seconds =       0.13 minutes
	total time  =         61 seconds =       1.02 minutes

========================OPTAVC-XTPL==========================

MP2/TZ correlation energy -1.148773347381348

=============================================================

    Psi4 stopped on: Monday, 08 June 2020 02:56PM
    Psi4 wall time for execution: 0:01:00.53

*** Psi4 exiting successfully. Buy a developer a beer!
