
 Primary working directories    : /tmp/320938.531.gen6.q
 Secondary working directories  : /tmp/320938.531.gen6.q
 Wavefunction directory         : /home/vulcan/mel64643/wfu/
 Main file repository           : /tmp/320938.531.gen6.q/

 ARCHNAME  : Linux/x86_64
 FC        : /opt/intel/compilers_and_libraries_2016.1.150/linux/bin/intel64/ifort
 FCVERSION : 16.0.1
 BLASLIB   : -mkl
 id        : ccgc

 Nodes     nprocs
 n090         3
 Number of processes for MPI-2 version of Molpro:   nprocs(total)=    4   nprocs(compute)=    3   nprocs(helper)=    1
 ga_uses_ma=false, calling ma_init with nominal heap.
 GA-space will be limited to   8.0 MW (determined by -G option)

 Using customized tuning parameters: mindgm=10; mindgv=16; mindgc=4; mindgr=1; noblas=0; mincuda=1000; minvec=7
 default implementation of scratch files=sf  

 ***,Frequencies for min3
 memory,1000,m
 gthresh,energy=1.0d-10,orbital=1.0d-10,oneint=1.0d-16,twoint=1.0d-16,optgrad=1.0d-6,compress=1.0d-13
 geomtyp=xyz
 
  geometry = {
  12
  arbitrary comment
     C    1.776964391707    0.711398808326   -0.047331391796
     C    0.491811976407   -0.059992870174   -0.197129665366
     C    0.450331042376   -1.536293935297    0.101609264588
     O   -0.560794521494    0.727223516895    0.254650705618
     O   -1.837818950456    0.092275797423   -0.120529858834
     H    2.585454963843    0.211512725107   -0.610883962192
     H    1.660481297729    1.742921688355   -0.426001913548
     H    2.095002009672    0.772024099206    1.018061567471
     H   -0.504552088606   -1.982418421146   -0.219938496683
     H    1.282273455719   -2.046138600618   -0.416697374449
     H    0.561750948388   -1.718284605653    1.195057305628
     H   -1.988620266142    0.550544087161   -0.967280472396
  }
 
 basis=cc-pvdz
 {rhf;maxit,200}
 {uccsd(t);maxit,200}

 Variables initialized (661), CPU time= 0.01 sec
 Commands  initialized (458), CPU time= 0.00 sec, 486 directives.
 Default parameters read. Elapsed time= 0.06 sec

 Checking input...
 Passed
1


                                         ***  PROGRAM SYSTEM MOLPRO  ***
                         Copyright, University College Cardiff Consultants Limited, 2008

                                    Version 2010.1 linked May 16 2016 07:17:05


 **********************************************************************************************************************************
 LABEL *   Frequencies for min3                                                          
 Linux-4.4.3/n090(x86_64) 64 bit mpp version                                             DATE: 07-Mar-20          TIME: 04:05:20  
 **********************************************************************************************************************************

 SHA1:             9e8077add272b0f3cad6f7df79ec5211205f459d
 **********************************************************************************************************************************

 THRESHOLDS:

 ZERO    =  1.00D-12  ONEINT  =  1.00D-16  TWOINT  =  1.00D-16  PREFAC  =  1.00D-14  LOCALI  =  1.00D-09  EORDER  =  1.00D-04
 ENERGY  =  1.00D-10  ETEST   =  0.00D+00  EDENS   =  0.00D+00  THRDEDEF=  1.00D-06  GRADIENT=  1.00D-02  STEP    =  1.00D-03
 ORBITAL =  1.00D-10  CIVEC   =  1.00D-05  COEFF   =  1.00D-04  PRINTCI =  5.00D-02  PUNCHCI =  9.90D+01  OPTGRAD =  1.00D-06
 OPTENERG=  1.00D-06  OPTSTEP =  3.00D-04  THRGRAD =  1.00D-10  COMPRESS=  1.00D-13  VARMIN  =  1.00D-07  VARMAX  =  1.00D-03
 THRDOUB =  0.00D+00  THRDIV  =  1.00D-05  THRRED  =  1.00D-07  THRPSP  =  1.00D+00  THRDC   =  1.00D-10  THRCS   =  1.00D-10
 THRNRM  =  1.00D-08  THREQ   =  0.00D+00  THRDE   =  1.00D+00  THRREF  =  1.00D-05  SPARFAC =  1.00D+00  THRDLP  =  1.00D-07
 THRDIA  =  1.00D-10  THRDLS  =  1.00D-07  THRGPS  =  0.00D+00  THRKEX  =  0.00D+00  THRDIS  =  2.00D-01  THRVAR  =  1.00D-10
 THRLOC  =  1.00D-06  THRGAP  =  1.00D-06  THRLOCT = -1.00D+00  THRGAPT = -1.00D+00  THRORB  =  1.00D-06  THRMLTP =  0.00D+00
 THRCPQCI=  1.00D-10  KEXTA   =  0.00D+00  THRCOARS=  0.00D+00  SYMTOL  =  1.00D-06  GRADTOL =  1.00D-06  THROVL  =  1.00D-08
 THRORTH =  1.00D-08  GRID    =  1.00D-06  GRIDMAX =  1.00D-03  DTMAX   =  0.00D+00

 SETTING GEOMTYP        =    XYZ

 Variable memory set to 1000000000 words,  buffer space   230000 words

 SETTING BASIS          =    CC-PVDZ


 Recomputing integrals since basis changed


 Using spherical harmonics

 Library entry C      S cc-pVDZ              selected for orbital group  1
 Library entry C      P cc-pVDZ              selected for orbital group  1
 Library entry C      D cc-pVDZ              selected for orbital group  1
 Library entry O      S cc-pVDZ              selected for orbital group  2
 Library entry O      P cc-pVDZ              selected for orbital group  2
 Library entry O      D cc-pVDZ              selected for orbital group  2
 Library entry H      S cc-pVDZ              selected for orbital group  3
 Library entry H      P cc-pVDZ              selected for orbital group  3

1PROGRAM * SEWARD (Integral evaluation for generally contracted gaussian basis sets)     Author: Roland Lindh, 1990

 Geometry written to block  1 of record 700


 Point group  C1  



 ATOMIC COORDINATES

 NR  ATOM    CHARGE       X              Y              Z

   1  C       6.00    3.357976046    1.344348918   -0.089443368
   2  C       6.00    0.929389944   -0.113370094   -0.372521080
   3  C       6.00    0.851002339   -2.903174795    0.192013682
   4  O       8.00   -1.059748062    1.374253283    0.481220093
   5  O       8.00   -3.472974495    0.174375986   -0.227768424
   6  H       1.00    4.885801807    0.399701124   -1.154403387
   7  H       1.00    3.137854899    3.293644660   -0.805026948
   8  H       1.00    3.958980043    1.458914114    1.923857547
   9  H       1.00   -0.953465267   -3.746227894   -0.415623524
  10  H       1.00    2.423145657   -3.866641582   -0.787443917
  11  H       1.00    1.061555447   -3.247087321    2.258331019
  12  H       1.00   -3.757947682    1.040377548   -1.827895185

 Bond lengths in Bohr (Angstrom)

 1-2  2.846595891  1-6  2.088241091  1-7  2.088125252  1-8  2.104212814  2-3  2.847429434
     ( 1.506353669)     ( 1.105049592)     ( 1.104988293)     ( 1.113501464)     ( 1.506794761)

  2- 4  2.626512385   3- 9  2.082321983   3-10  2.087879320   3-11  2.105297074   4- 5  2.786760138
       ( 1.389890493)       ( 1.101917335)       ( 1.104858151)       ( 1.114075230)       ( 1.474689952)

  5-12  1.841622675
       ( 0.974544747)

 Bond angles

  1-2-3  120.36450473   1-2-4  108.89006718   2-1-6  109.98832488   2-1-7  110.73405816

  2- 1- 8  111.51264013   2- 3- 9  111.26428725   2- 3-10  109.77831349   2- 3-11  110.60277927

  2- 4- 5  109.22367437   3- 2- 4  118.01041570   4- 5-12   98.77664772   6- 1- 7  108.94433761

  6- 1- 8  107.67435980   7- 1- 8  107.88870057   9- 3-10  109.19553933   9- 3-11  107.87457122

 10- 3-11  108.04366095

 NUCLEAR CHARGE:                   41
 NUMBER OF PRIMITIVE AOS:         184
 NUMBER OF SYMMETRY AOS:          179
 NUMBER OF CONTRACTIONS:          105   ( 105A   )
 NUMBER OF CORE ORBITALS:           5   (   5A   )
 NUMBER OF VALENCE ORBITALS:       27   (  27A   )


 NUCLEAR REPULSION ENERGY  183.22211214


 Eigenvalues of metric

         1 0.345E-02 0.436E-02 0.105E-01 0.141E-01 0.182E-01 0.214E-01 0.331E-01 0.346E-01


 Contracted 2-electron integrals neglected if value below      1.0D-16
 AO integral compression algorithm  1   Integral accuracy      1.0D-16

     127.402 MB (compressed) written to integral file ( 93.4%)

     Node minimum: 40.894 MB, node maximum: 43.516 MB


 NUMBER OF SORTED TWO-ELECTRON INTEGRALS:    5164320.     BUFFER LENGTH:  32768
 NUMBER OF SEGMENTS:   1  SEGMENT LENGTH:    5164320      RECORD LENGTH: 524288

 Memory used in sort:       5.72 MW

 SORT1 READ    17075413. AND WROTE     5135902. INTEGRALS IN     15 RECORDS. CPU TIME:     0.19 SEC, REAL TIME:     0.22 SEC
 SORT2 READ    15396640. AND WROTE    15487395. INTEGRALS IN    498 RECORDS. CPU TIME:     0.05 SEC, REAL TIME:     0.09 SEC

 Node minimum:     5160610.  Node maximum:     5164320. integrals

 OPERATOR DM      FOR CENTER  0  COORDINATES:    0.000000    0.000000    0.000000


 **********************************************************************************************************************************
 DATASETS  * FILE   NREC   LENGTH (MB)   RECORD NAMES
              1      18        3.17       500      610      700      900      950      970     1000      129      960     1100   
                                          VAR    BASINP    GEOM    SYMINP    ZMAT    AOBASIS   BASIS     P2S    ABASIS      S 
                                         1400     1410     1200     1210     1080     1600     1650     1700   
                                           T        V       H0       H01     AOSYM     SMH    MOLCAS    OPER   

 PROGRAMS   *        TOTAL       INT
 CPU TIMES  *         0.82      0.74
 REAL TIME  *         1.25 SEC
 DISK USED  *       305.44 MB      
 GA USED    *         0.00 MB       (max)       0.00 MB       (current)
 **********************************************************************************************************************************

1PROGRAM * RHF-SCF (OPEN SHELL)       Authors: W. Meyer, H.-J. Werner


 NUMBER OF ELECTRONS:      21+   20-    SPACE SYMMETRY=1    SPIN SYMMETRY: Doublet 
 CONVERGENCE THRESHOLDS:    1.00E-10 (Density)    1.00E-11 (Energy)
 MAX. NUMBER OF ITERATIONS:      200
 INTERPOLATION TYPE:            DIIS
 INTERPOLATION STEPS:              2 (START)      1 (STEP)
 LEVEL SHIFTS:                 -0.30 (CLOSED)  0.00 (OPEN) 



 Orbital guess generated from atomic densities. Full valence occupancy:   32

 Molecular orbital dump at record        2100.2

 ITERATION    DDIFF          GRAD             ENERGY        2-EL.EN.            DIPOLE MOMENTS         DIIS
    1      0.000D+00      0.000D+00      -267.17825742    555.818457    0.57058    0.04955   -0.74913    0
    2      0.000D+00      0.617D-02      -267.24895031    555.740397    0.41447   -0.13124   -0.59882    1
    3      0.928D-02      0.214D-02      -267.26112414    555.658541    0.39424   -0.05945   -0.62633    2
    4      0.336D-02      0.912D-03      -267.26472776    555.810712    0.37965   -0.09963   -0.64275    3
    5      0.186D-02      0.363D-03      -267.26529504    555.782098    0.38221   -0.09316   -0.63573    4
    6      0.791D-03      0.110D-03      -267.26537103    555.768357    0.38048   -0.09297   -0.63847    5
    7      0.276D-03      0.510D-04      -267.26539103    555.765348    0.37978   -0.09272   -0.63796    6
    8      0.143D-03      0.272D-04      -267.26539706    555.763408    0.38006   -0.09284   -0.63817    7
    9      0.921D-04      0.115D-04      -267.26539797    555.763714    0.38024   -0.09280   -0.63792    8
   10      0.365D-04      0.501D-05      -267.26539813    555.764328    0.38050   -0.09281   -0.63799    9
   11      0.147D-04      0.196D-05      -267.26539815    555.764170    0.38055   -0.09280   -0.63799    9
   12      0.650D-05      0.670D-06      -267.26539816    555.764304    0.38057   -0.09280   -0.63799    9
   13      0.227D-05      0.226D-06      -267.26539816    555.764220    0.38057   -0.09280   -0.63799    9
   14      0.631D-06      0.755D-07      -267.26539816    555.764229    0.38058   -0.09280   -0.63799    9
   15      0.192D-06      0.299D-07      -267.26539816    555.764225    0.38058   -0.09280   -0.63799    9
   16      0.820D-07      0.144D-07      -267.26539816    555.764226    0.38058   -0.09281   -0.63799    9
   17      0.371D-07      0.745D-08      -267.26539816    555.764226    0.38058   -0.09281   -0.63799    9
   18      0.220D-07      0.340D-08      -267.26539816    555.764227    0.38058   -0.09281   -0.63799    9
   19      0.114D-07      0.133D-08      -267.26539816    555.764227    0.38058   -0.09281   -0.63799    9
   20      0.442D-08      0.563D-09      -267.26539816    555.764227    0.38058   -0.09281   -0.63799    9
   21      0.164D-08      0.285D-09      -267.26539816    555.764227    0.38058   -0.09281   -0.63799    9
   22      0.748D-09      0.161D-09      -267.26539816    555.764227    0.38058   -0.09281   -0.63799    9
   23      0.444D-09      0.792D-10      -267.26539816    555.764227    0.38058   -0.09281   -0.63799    9
   24      0.262D-09      0.315D-10      -267.26539816    555.764227    0.38058   -0.09281   -0.63799    9
   25      0.927D-10      0.128D-10      -267.26539816    555.764227    0.38058   -0.09281   -0.63799    0

 Final alpha occupancy:  21
 Final beta  occupancy:  20

 !RHF STATE 1.1 Energy               -267.265398157651
 Nuclear energy                       183.22211214
 One-electron energy                 -728.36962358
 Two-electron energy                  277.88211328
 Virial quotient                       -1.00155461
 !RHF STATE 1.1 Dipole moment           0.38057766    -0.09280537    -0.63798695
 Dipole moment /Debye                   0.96726858    -0.23587228    -1.62149488

 Orbital energies:

         1.1          2.1          3.1          4.1          5.1          6.1          7.1          8.1          9.1         10.1
    -20.630444   -20.628765   -11.279304   -11.237878   -11.232120    -1.470043    -1.240600    -1.023262    -0.945377    -0.768421

        11.1         12.1         13.1         14.1         15.1         16.1         17.1         18.1         19.1         20.1
     -0.704489    -0.642978    -0.626671    -0.588801    -0.545192    -0.543471    -0.538961    -0.517034    -0.492946    -0.469695

        21.1         22.1         23.1
     -0.352490     0.181297     0.183528


 **********************************************************************************************************************************
 DATASETS  * FILE   NREC   LENGTH (MB)   RECORD NAMES
              1      18        3.17       500      610      700      900      950      970     1000      129      960     1100   
                                          VAR    BASINP    GEOM    SYMINP    ZMAT    AOBASIS   BASIS     P2S    ABASIS      S 
                                         1400     1410     1200     1210     1080     1600     1650     1700   
                                           T        V       H0       H01     AOSYM     SMH    MOLCAS    OPER   

              2       3        0.77       700     1000     2100   
                                         GEOM     BASIS     RHF  

 PROGRAMS   *        TOTAL       RHF       INT
 CPU TIMES  *         1.75      0.93      0.74
 REAL TIME  *         2.32 SEC
 DISK USED  *       322.01 MB      
 SF USED    *         0.04 MB      
 GA USED    *         0.00 MB       (max)       0.00 MB       (current)
 **********************************************************************************************************************************


1PROGRAM * CCSD (Unrestricted open-shell coupled cluster)     Authors: C. Hampel, H.-J. Werner, 1991, M. Deegan, P.J. Knowles, 1992


 Convergence thresholds:  THRVAR = 1.00D-08  THRDEN = 1.00D-10

 CCSD(T)     terms to be evaluated (factor= 1.000)


 Number of core orbitals:           5 (   5 )
 Number of closed-shell orbitals:  15 (  15 )
 Number of active  orbitals:        1 (   1 )
 Number of external orbitals:      84 (  84 )

 Memory could be reduced to 24.91 Mwords without degradation in triples

 Number of N-1 electron functions:              31
 Number of N-2 electron functions:             465
 Number of singly external CSFs:              2635
 Number of doubly external CSFs:           2537250
 Total number of CSFs:                     2539885

 Molecular orbitals read from record     2100.2  Type=RHF/CANONICAL (state 1.1)

 Integral transformation finished. Total CPU:   0.92 sec, npass=  1  Memory used:  12.63 MW

 Starting RMP2 calculation

 ITER.      SQ.NORM     CORR.ENERGY   TOTAL ENERGY   ENERGY CHANGE        DEN1      VAR(S)    VAR(P)  DIIS     TIME
   1      1.24302782    -0.78636842  -268.05176658    -0.78636842    -0.00304998  0.20D-04  0.11D-02  1  1     1.25
   2      1.24566936    -0.78965764  -268.05505579    -0.00328921    -0.00000475  0.54D-06  0.19D-05  2  2     1.52
   3      1.24573492    -0.78969970  -268.05509786    -0.00004207    -0.00000003  0.16D-07  0.68D-08  3  3     1.82
   4      1.24573587    -0.78969970  -268.05509786    -0.00000000    -0.00000000  0.27D-09  0.38D-10  4  4     2.14
   5      1.24573596    -0.78969974  -268.05509789    -0.00000003    -0.00000000  0.25D-11  0.65D-12  5  5     2.47
   6      1.24573597    -0.78969974  -268.05509790    -0.00000001    -0.00000000  0.28D-13  0.87D-14  6  6     2.83
   7      1.24573597    -0.78969974  -268.05509790     0.00000000    -0.00000000  0.47D-15  0.12D-15  6  1     3.19
   8      1.24573597    -0.78969974  -268.05509790     0.00000000    -0.00000000  0.60D-17  0.13D-17  6  2     3.56

 Norm of t1 vector:      0.03891066      S-energy:    -0.00226915      T1 diagnostic:  0.00055037
 Norm of t2 vector:      0.49418815      P-energy:    -0.78743059
                                         Alpha-Beta:  -0.59341354
                                         Alpha-Alpha: -0.10093925
                                         Beta-Beta:   -0.09307780

 Spin contamination <S**2-Sz**2-Sz>     0.00103973
  Reference energy                   -267.265398157651
  RHF-RMP2 correlation energy          -0.789699741684
 !RHF-RMP2 energy                    -268.055097899336

 Starting UCCSD calculation

 ITER.      SQ.NORM     CORR.ENERGY   TOTAL ENERGY   ENERGY CHANGE        DEN1      VAR(S)    VAR(P)  DIIS     TIME
   1      1.26280094    -0.80903939  -268.07443755    -0.80903939    -0.02515727  0.38D-02  0.59D-02  1  1     9.80
   2      1.29157671    -0.83644986  -268.10184802    -0.02741046    -0.00201133  0.22D-03  0.66D-03  2  2    16.03
   3      1.30151863    -0.84094813  -268.10634628    -0.00449827    -0.00032471  0.19D-03  0.56D-04  3  3    22.30
   4      1.30643248    -0.84242545  -268.10782361    -0.00147733    -0.00007210  0.43D-04  0.14D-04  4  4    28.42
   5      1.30916278    -0.84281366  -268.10821182    -0.00038821    -0.00002367  0.19D-04  0.32D-05  5  5    34.09
   6      1.31110184    -0.84301817  -268.10841633    -0.00020450    -0.00000645  0.42D-05  0.12D-05  6  6    38.97
   7      1.31205045    -0.84307691  -268.10847507    -0.00005875    -0.00000207  0.14D-05  0.37D-06  6  2    43.81
   8      1.31249117    -0.84311955  -268.10851771    -0.00004264    -0.00000065  0.45D-06  0.11D-06  6  1    48.66
   9      1.31267559    -0.84312410  -268.10852226    -0.00000455    -0.00000022  0.15D-06  0.35D-07  6  4    54.90
  10      1.31273843    -0.84312702  -268.10852518    -0.00000292    -0.00000005  0.35D-07  0.95D-08  6  3    61.24
  11      1.31276778    -0.84312575  -268.10852391     0.00000127    -0.00000002  0.13D-07  0.28D-08  6  5    67.21
  12      1.31277811    -0.84312549  -268.10852365     0.00000026    -0.00000000  0.26D-08  0.95D-09  6  6    72.03
  13      1.31277696    -0.84312458  -268.10852274     0.00000091    -0.00000000  0.96D-09  0.28D-09  6  2    77.23
  14      1.31277177    -0.84312374  -268.10852190     0.00000084    -0.00000000  0.21D-09  0.67D-10  6  1    83.52
  15      1.31276770    -0.84312315  -268.10852131     0.00000058    -0.00000000  0.78D-10  0.19D-10  6  4    89.21
  16      1.31276452    -0.84312277  -268.10852093     0.00000038    -0.00000000  0.28D-10  0.63D-11  6  3    94.90
  17      1.31276232    -0.84312253  -268.10852069     0.00000024    -0.00000000  0.10D-10  0.24D-11  6  5   100.63
  18      1.31276141    -0.84312247  -268.10852063     0.00000006    -0.00000000  0.41D-11  0.87D-12  6  6   106.33
  19      1.31276081    -0.84312244  -268.10852060     0.00000003    -0.00000000  0.16D-11  0.37D-12  6  2   112.03
  20      1.31276049    -0.84312243  -268.10852058     0.00000001    -0.00000000  0.60D-12  0.13D-12  6  1   117.75
  21      1.31276033    -0.84312242  -268.10852057     0.00000001    -0.00000000  0.28D-12  0.58D-13  6  4   123.45
  22      1.31276021    -0.84312241  -268.10852057     0.00000001    -0.00000000  0.73D-13  0.21D-13  6  3   129.16
  23      1.31276015    -0.84312240  -268.10852056     0.00000000    -0.00000000  0.21D-13  0.62D-14  6  5   134.87
  24      1.31276014    -0.84312241  -268.10852056    -0.00000000    -0.00000000  0.67D-14  0.22D-14  6  6   140.78
  25      1.31276015    -0.84312241  -268.10852056    -0.00000000    -0.00000000  0.21D-14  0.52D-15  6  2   147.08
  26      1.31276015    -0.84312241  -268.10852057    -0.00000000    -0.00000000  0.77D-15  0.15D-15  6  1   153.38
  27      1.31276016    -0.84312241  -268.10852057    -0.00000000    -0.00000000  0.20D-15  0.62D-16  6  3   159.65
  28      1.31276017    -0.84312241  -268.10852057    -0.00000000    -0.00000000  0.30D-16  0.11D-16  6  4   165.96
  29      1.31276017    -0.84312241  -268.10852057    -0.00000000    -0.00000000  0.70D-17  0.29D-17  6  5   172.37
  30      1.31276017    -0.84312241  -268.10852057    -0.00000000    -0.00000000  0.15D-17  0.54D-18  6  6   178.17
  31      1.31276017    -0.84312241  -268.10852057    -0.00000000    -0.00000000  0.35D-18  0.10D-18  6  2   183.90

 Norm of t1 vector:      0.13870417      S-energy:    -0.00281827      T1 diagnostic:  0.01616911
                                                                       D1 diagnostic:  0.06283211
 Norm of t2 vector:      0.54177608      P-energy:    -0.84030414
                                         Alpha-Beta:  -0.66486308
                                         Alpha-Alpha: -0.09147230
                                         Beta-Beta:   -0.08396876

 Spin contamination <S**2-Sz**2-Sz>     0.00216870

 Memory could be reduced to 28.85 Mwords without degradation in triples
 

 RESULTS
 =======

  Reference energy                   -267.265398157651
  UCCSD singles energy                 -0.002818270280
  UCCSD pair energy                    -0.840304138565
  UCCSD correlation energy             -0.843122408846
  Triples (T) contribution             -0.024976447602
  Total correlation energy             -0.868098856448
 
  RHF-UCCSD energy                   -268.108520566497
  RHF-UCCSD[T] energy                -268.134833226682
  RHF-UCCSD-T energy                 -268.133075296197
 !RHF-UCCSD(T) energy                -268.133497014099

 Program statistics:

 Available memory in ccsd:               999997692
 Min. memory needed in ccsd:               7337057
 Max. memory used in ccsd:                10523002
 Max. memory used in cckext:              10867977 (31 integral passes)
 Max. memory used in cckint:              12633073 ( 1 integral passes)



 **********************************************************************************************************************************
 DATASETS  * FILE   NREC   LENGTH (MB)   RECORD NAMES
              1      18        3.17       500      610      700      900      950      970     1000      129      960     1100   
                                          VAR    BASINP    GEOM    SYMINP    ZMAT    AOBASIS   BASIS     P2S    ABASIS      S 
                                         1400     1410     1200     1210     1080     1600     1650     1700   
                                           T        V       H0       H01     AOSYM     SMH    MOLCAS    OPER   

              2       3        0.77       700     1000     2100   
                                         GEOM     BASIS     RHF  

 PROGRAMS   *        TOTAL  UCCSD(T)       RHF       INT
 CPU TIMES  *       228.37    226.62      0.93      0.74
 REAL TIME  *       238.02 SEC
 DISK USED  *         1.29 GB      
 SF USED    *       553.73 MB      
 GA USED    *         0.00 MB       (max)       0.00 MB       (current)
 **********************************************************************************************************************************

        UCCSD(T)        RHF-SCF 
   -268.13349701   -267.26539816
 **********************************************************************************************************************************
 Variable memory released
