
Host: n067

Timers On : Fri Jun  5 13:54:50 2020
Timers Off: Fri Jun  5 13:54:50 2020

Wall Time:        0.33 seconds

                                                       Time (seconds)
Module                                       User      System        Wall        Calls

--------------------------------------------------------------------------------------

**************************************************************************************
