    -----------------------------------------------------------------------
          Psi4: An Open-Source Ab Initio Electronic Structure Package
                              Psi4 1.0rc90 Driver

                          Git: Rev {master} 87fd1c8 dirty

    J. M. Turney, A. C. Simmonett, R. M. Parrish, E. G. Hohenstein,
    F. A. Evangelista, J. T. Fermann, B. J. Mintz, L. A. Burns, J. J. Wilke,
    M. L. Abrams, N. J. Russ, M. L. Leininger, C. L. Janssen, E. T. Seidl,
    W. D. Allen, H. F. Schaefer, R. A. King, E. F. Valeev, C. D. Sherrill,
    and T. D. Crawford, WIREs Comput. Mol. Sci. 2, 556-565 (2012)
    (doi: 10.1002/wcms.93)

                         Additional Contributions by
    A. E. DePrince, U. Bozkaya, A. Yu. Sokolov, D. G. A. Smith, R. Di Remigio,
    R. M. Richard, J. F. Gonthier, H. R. McAlexander, M. Saitow, and
    B. P. Pritchard
    -----------------------------------------------------------------------


    Psi4 started on: Thu Jun 16 13:52:39 2016

    Process ID:   3994
    PSI4DATADIR: /home/avcopan/Documents/code/github/psi4/share
    Memory level set to 256.000 MB

  ==> Input File <==

--------------------------------------------------------------------------
memory 250 mb

molecule {
  O    0.000000000000    0.000000000000   -0.071239360116
  H    0.000000000000   -0.757446767577    0.565310171086
  H   -0.000000000000    0.757446767577    0.565310171086
}

set basis sto-3g
energy('scf')
--------------------------------------------------------------------------

  Memory set to 250.000 MiB by Python script.
    There are an even number of electrons - assuming singlet.
    Specify the multiplicity in the molecule input block.


*** tstart() called on knut
*** at Thu Jun 16 13:52:40 2016


         ---------------------------------------------------------
                                   SCF
            by Justin Turney, Rob Parrish, and Andy Simmonett
                              RHF Reference
                        1 Threads,    250 MiB Core
         ---------------------------------------------------------

  ==> Geometry <==

    Molecular point group: c2v
    Full point group: C2v

    Geometry (in Angstrom), charge = 0, multiplicity = 1:

       Center              X                  Y                   Z               Mass       
    ------------   -----------------  -----------------  -----------------  -----------------
           O          0.000000000000     0.000000000000    -0.071239360116    15.994914619560
           H          0.000000000000    -0.757446767577     0.565310171086     1.007825032070
           H         -0.000000000000     0.757446767577     0.565310171086     1.007825032070

  Running in c2v symmetry.

  Rotational constants: A =     23.24140  B =     14.57730  C =      8.95845 [cm^-1]
  Rotational constants: A = 696759.75426  B = 437016.49163  C = 268567.54533 [MHz]
  Nuclear repulsion =    8.906824375069661

  Charge       = 0
  Multiplicity = 1
  Electrons    = 10
  Nalpha       = 5
  Nbeta        = 5

  ==> Algorithm <==

  SCF Algorithm Type is DF.
  DIIS enabled.
  MOM disabled.
  Fractional occupation disabled.
  Guess Type is CORE.
  Energy threshold   = 1.00e-06
  Density threshold  = 1.00e-06
  Integral threshold = 0.00e+00

  ==> Primary Basis <==

  Basis Set: STO-3G
    Number of shells: 5
    Number of basis function: 7
    Number of Cartesian functions: 7
    Spherical Harmonics?: true
    Max angular momentum: 1

  ==> Pre-Iterations <==

   -------------------------------------------------------
    Irrep   Nso     Nmo     Nalpha   Nbeta   Ndocc  Nsocc
   -------------------------------------------------------
     A1         4       4       0       0       0       0
     A2         0       0       0       0       0       0
     B1         1       1       0       0       0       0
     B2         2       2       0       0       0       0
   -------------------------------------------------------
    Total       7       7       5       5       5       0
   -------------------------------------------------------

  ==> Integral Setup <==

  ==> DFJK: Density-Fitted J/K Matrices <==

    J tasked:                  Yes
    K tasked:                  Yes
    wK tasked:                  No
    OpenMP threads:              1
    Integrals threads:           1
    Memory (MB):               178
    Algorithm:                Core
    Integral Cache:           NONE
    Schwarz Cutoff:          1E-12
    Fitting Condition:       1E-12

   => Auxiliary Basis Set <=

  Basis Set: 
    Number of shells: 30
    Number of basis function: 84
    Number of Cartesian functions: 96
    Spherical Harmonics?: true
    Max angular momentum: 3

  Minimum eigenvalue in the overlap matrix is 3.6317991680E-01.
  Using Symmetric Orthogonalization.
  SCF Guess: Core (One-Electron) Hamiltonian.

  ==> Iterations <==

                           Total Energy        Delta E     RMS |[F,P]|

   @DF-RHF iter   1:   -73.24122674485027   -7.32412e+01   2.17486e-01 
   @DF-RHF iter   2:   -74.93132775433351   -1.69010e+00   4.46273e-02 DIIS
   @DF-RHF iter   3:   -74.96500216746263   -3.36744e-02   7.86471e-03 DIIS
   @DF-RHF iter   4:   -74.96632117602645   -1.31901e-03   1.37258e-03 DIIS
   @DF-RHF iter   5:   -74.96637510518825   -5.39292e-05   3.77506e-04 DIIS
   @DF-RHF iter   6:   -74.96637968518742   -4.58000e-06   3.51297e-05 DIIS
   @DF-RHF iter   7:   -74.96637972154241   -3.63550e-08   2.66525e-08 DIIS

  ==> Post-Iterations <==

    Orbital Energies (a.u.)
    -----------------------

    Doubly Occupied:                                                      

       1A1   -20.252255     2A1    -1.257690     1B2    -0.593652  
       3A1    -0.459987     1B1    -0.392674  

    Virtual:                                                              

       4A1     0.582084     2B2     0.692497  

    Final Occupation by Irrep:
             A1    A2    B1    B2 
    DOCC [     3,    0,    1,    1 ]

  Energy converged.

  @DF-RHF Final Energy:   -74.96637972154241

   => Energetics <=

    Nuclear Repulsion Energy =              8.9068243750696610
    One-Electron Energy =                -121.8338914685666339
    Two-Electron Energy =                  37.9606873719545632
    DFT Exchange-Correlation Energy =       0.0000000000000000
    Empirical Dispersion Energy =           0.0000000000000000
    PCM Polarization Energy =               0.0000000000000000
    EFP Energy =                            0.0000000000000000
    Total Energy =                        -74.9663797215424097


  Saving occupied orbitals to File 180.

*** tstop() called on knut at Thu Jun 16 13:52:40 2016
Module time:
	user time   =       0.06 seconds =       0.00 minutes
	system time =       0.14 seconds =       0.00 minutes
	total time  =          0 seconds =       0.00 minutes
Total time:
	user time   =       0.06 seconds =       0.00 minutes
	system time =       0.14 seconds =       0.00 minutes
	total time  =          0 seconds =       0.00 minutes


Properties will be evaluated at   0.000000,   0.000000,   0.000000 Bohr

Properties computed using the SCF density matrix

  Nuclear Dipole Moment: (a.u.)
     X:     0.0000      Y:     0.0000      Z:     1.0596

  Electronic Dipole Moment: (a.u.)
     X:     0.0000      Y:     0.0000      Z:    -0.3869

  Dipole Moment: (a.u.)
     X:     0.0000      Y:     0.0000      Z:     0.6727     Total:     0.6727

  Dipole Moment: (Debye)
     X:     0.0000      Y:     0.0000      Z:     1.7098     Total:     1.7098


*** Psi4 exiting successfully. Buy a developer a beer!
