
 Primary working directories    : /tmp/320938.278.gen6.q
 Secondary working directories  : /tmp/320938.278.gen6.q
 Wavefunction directory         : /home/vulcan/mel64643/wfu/
 Main file repository           : /tmp/320938.278.gen6.q/

 ARCHNAME  : Linux/x86_64
 FC        : /opt/intel/compilers_and_libraries_2016.1.150/linux/bin/intel64/ifort
 FCVERSION : 16.0.1
 BLASLIB   : -mkl
 id        : ccgc

 Nodes     nprocs
 n078         3
 Number of processes for MPI-2 version of Molpro:   nprocs(total)=    4   nprocs(compute)=    3   nprocs(helper)=    1
 ga_uses_ma=false, calling ma_init with nominal heap.
 GA-space will be limited to   8.0 MW (determined by -G option)

 Using customized tuning parameters: mindgm=10; mindgv=16; mindgc=4; mindgr=1; noblas=0; mincuda=1000; minvec=7
 default implementation of scratch files=sf  

 ***,Frequencies for min3
 memory,1000,m
 gthresh,energy=1.0d-10,orbital=1.0d-10,oneint=1.0d-16,twoint=1.0d-16,optgrad=1.0d-6,compress=1.0d-13
 geomtyp=xyz
 
  geometry = {
  12
  arbitrary comment
     C    1.776964391707    0.711398808326   -0.047331391796
     C    0.491811976407   -0.059992870174   -0.196493901896
     C    0.450332819107   -1.536294019674    0.101417522804
     O   -0.560767745493    0.727234937526    0.254015897436
     O   -1.837841165583    0.092261408667   -0.120248025919
     H    2.585406397951    0.211670253643   -0.610797813273
     H    1.660421877564    1.743024231399   -0.425514666974
     H    2.095028258712    0.773773879394    1.018420049169
     H   -0.504832015567   -1.982733921852   -0.222213338291
     H    1.281412586783   -2.047790027323   -0.416676668578
     H    0.562355091145   -1.718627676698    1.195466236973
     H   -1.988095415590    0.550892344821   -0.966052061724
  }
 
 basis=cc-pvdz
 {rhf;maxit,200}
 {uccsd(t);maxit,200}

 Variables initialized (661), CPU time= 0.00 sec
 Commands  initialized (458), CPU time= 0.01 sec, 486 directives.
 Default parameters read. Elapsed time= 0.06 sec

 Checking input...
 Passed
1


                                         ***  PROGRAM SYSTEM MOLPRO  ***
                         Copyright, University College Cardiff Consultants Limited, 2008

                                    Version 2010.1 linked May 16 2016 07:17:05


 **********************************************************************************************************************************
 LABEL *   Frequencies for min3                                                          
 Linux-4.4.3/n078(x86_64) 64 bit mpp version                                             DATE: 07-Mar-20          TIME: 02:35:20  
 **********************************************************************************************************************************

 SHA1:             9e8077add272b0f3cad6f7df79ec5211205f459d
 **********************************************************************************************************************************

 THRESHOLDS:

 ZERO    =  1.00D-12  ONEINT  =  1.00D-16  TWOINT  =  1.00D-16  PREFAC  =  1.00D-14  LOCALI  =  1.00D-09  EORDER  =  1.00D-04
 ENERGY  =  1.00D-10  ETEST   =  0.00D+00  EDENS   =  0.00D+00  THRDEDEF=  1.00D-06  GRADIENT=  1.00D-02  STEP    =  1.00D-03
 ORBITAL =  1.00D-10  CIVEC   =  1.00D-05  COEFF   =  1.00D-04  PRINTCI =  5.00D-02  PUNCHCI =  9.90D+01  OPTGRAD =  1.00D-06
 OPTENERG=  1.00D-06  OPTSTEP =  3.00D-04  THRGRAD =  1.00D-10  COMPRESS=  1.00D-13  VARMIN  =  1.00D-07  VARMAX  =  1.00D-03
 THRDOUB =  0.00D+00  THRDIV  =  1.00D-05  THRRED  =  1.00D-07  THRPSP  =  1.00D+00  THRDC   =  1.00D-10  THRCS   =  1.00D-10
 THRNRM  =  1.00D-08  THREQ   =  0.00D+00  THRDE   =  1.00D+00  THRREF  =  1.00D-05  SPARFAC =  1.00D+00  THRDLP  =  1.00D-07
 THRDIA  =  1.00D-10  THRDLS  =  1.00D-07  THRGPS  =  0.00D+00  THRKEX  =  0.00D+00  THRDIS  =  2.00D-01  THRVAR  =  1.00D-10
 THRLOC  =  1.00D-06  THRGAP  =  1.00D-06  THRLOCT = -1.00D+00  THRGAPT = -1.00D+00  THRORB  =  1.00D-06  THRMLTP =  0.00D+00
 THRCPQCI=  1.00D-10  KEXTA   =  0.00D+00  THRCOARS=  0.00D+00  SYMTOL  =  1.00D-06  GRADTOL =  1.00D-06  THROVL  =  1.00D-08
 THRORTH =  1.00D-08  GRID    =  1.00D-06  GRIDMAX =  1.00D-03  DTMAX   =  0.00D+00

 SETTING GEOMTYP        =    XYZ

 Variable memory set to 1000000000 words,  buffer space   230000 words

 SETTING BASIS          =    CC-PVDZ


 Recomputing integrals since basis changed


 Using spherical harmonics

 Library entry C      S cc-pVDZ              selected for orbital group  1
 Library entry C      P cc-pVDZ              selected for orbital group  1
 Library entry C      D cc-pVDZ              selected for orbital group  1
 Library entry O      S cc-pVDZ              selected for orbital group  2
 Library entry O      P cc-pVDZ              selected for orbital group  2
 Library entry O      D cc-pVDZ              selected for orbital group  2
 Library entry H      S cc-pVDZ              selected for orbital group  3
 Library entry H      P cc-pVDZ              selected for orbital group  3

1PROGRAM * SEWARD (Integral evaluation for generally contracted gaussian basis sets)     Author: Roland Lindh, 1990

 Geometry written to block  1 of record 700


 Point group  C1  



 ATOMIC COORDINATES

 NR  ATOM    CHARGE       X              Y              Z

   1  C       6.00    3.357976046    1.344348918   -0.089443368
   2  C       6.00    0.929389944   -0.113370094   -0.371319661
   3  C       6.00    0.851005696   -2.903174955    0.191651343
   4  O       8.00   -1.059697462    1.374274865    0.480020479
   5  O       8.00   -3.473016476    0.174348795   -0.227235837
   6  H       1.00    4.885710031    0.399998810   -1.154240589
   7  H       1.00    3.137742611    3.293838438   -0.804106185
   8  H       1.00    3.959029647    1.462220720    1.924534980
   9  H       1.00   -0.953994252   -3.746824104   -0.419922352
  10  H       1.00    2.421518850   -3.869762326   -0.787404789
  11  H       1.00    1.062697111   -3.247735631    2.259103787
  12  H       1.00   -3.756955859    1.041035660   -1.825573825

 Bond lengths in Bohr (Angstrom)

 1-2  2.846476668  1-6  2.087956268  1-7  2.088002657  1-8  2.105057714  2-3  2.847119878
     ( 1.506290578)     ( 1.104898870)     ( 1.104923419)     ( 1.113948566)     ( 1.506630951)

  2- 4  2.625706813   3- 9  2.084176356   3-10  2.087906517   3-11  2.106631179   4- 5  2.786421133
       ( 1.389464203)       ( 1.102898627)       ( 1.104872543)       ( 1.114781208)       ( 1.474510558)

  5-12  1.840231513
       ( 0.973808576)

 Bond angles

  1-2-3  120.37866573   1-2-4  108.90944847   2-1-6  110.00780298   2-1-7  110.74787850

  2- 1- 8  111.53240384   2- 3- 9  111.25135460   2- 3-10  109.88886167   2- 3-11  110.58257683

  2- 4- 5  109.25828609   3- 2- 4  118.04702874   4- 5-12   98.70109344   6- 1- 7  108.96000020

  6- 1- 8  107.71688442   7- 1- 8  107.77610986   9- 3-10  109.05319589   9- 3-11  107.98692415

 10- 3-11  107.99238976

 NUCLEAR CHARGE:                   41
 NUMBER OF PRIMITIVE AOS:         184
 NUMBER OF SYMMETRY AOS:          179
 NUMBER OF CONTRACTIONS:          105   ( 105A   )
 NUMBER OF CORE ORBITALS:           5   (   5A   )
 NUMBER OF VALENCE ORBITALS:       27   (  27A   )


 NUCLEAR REPULSION ENERGY  183.22846788


 Eigenvalues of metric

         1 0.345E-02 0.435E-02 0.105E-01 0.141E-01 0.182E-01 0.214E-01 0.331E-01 0.346E-01


 Contracted 2-electron integrals neglected if value below      1.0D-16
 AO integral compression algorithm  1   Integral accuracy      1.0D-16

     127.664 MB (compressed) written to integral file ( 93.2%)

     Node minimum: 40.632 MB, node maximum: 43.516 MB


 NUMBER OF SORTED TWO-ELECTRON INTEGRALS:    5164320.     BUFFER LENGTH:  32768
 NUMBER OF SEGMENTS:   1  SEGMENT LENGTH:    5164320      RECORD LENGTH: 524288

 Memory used in sort:       5.72 MW

 SORT1 READ    17075332. AND WROTE     5135919. INTEGRALS IN     15 RECORDS. CPU TIME:     0.19 SEC, REAL TIME:     0.23 SEC
 SORT2 READ    15396660. AND WROTE    15487395. INTEGRALS IN    498 RECORDS. CPU TIME:     0.06 SEC, REAL TIME:     0.09 SEC

 Node minimum:     5160610.  Node maximum:     5164320. integrals

 OPERATOR DM      FOR CENTER  0  COORDINATES:    0.000000    0.000000    0.000000


 **********************************************************************************************************************************
 DATASETS  * FILE   NREC   LENGTH (MB)   RECORD NAMES
              1      18        3.17       500      610      700      900      950      970     1000      129      960     1100   
                                          VAR    BASINP    GEOM    SYMINP    ZMAT    AOBASIS   BASIS     P2S    ABASIS      S 
                                         1400     1410     1200     1210     1080     1600     1650     1700   
                                           T        V       H0       H01     AOSYM     SMH    MOLCAS    OPER   

 PROGRAMS   *        TOTAL       INT
 CPU TIMES  *         0.82      0.74
 REAL TIME  *         1.24 SEC
 DISK USED  *       305.97 MB      
 GA USED    *         0.00 MB       (max)       0.00 MB       (current)
 **********************************************************************************************************************************

1PROGRAM * RHF-SCF (OPEN SHELL)       Authors: W. Meyer, H.-J. Werner


 NUMBER OF ELECTRONS:      21+   20-    SPACE SYMMETRY=1    SPIN SYMMETRY: Doublet 
 CONVERGENCE THRESHOLDS:    1.00E-10 (Density)    1.00E-11 (Energy)
 MAX. NUMBER OF ITERATIONS:      200
 INTERPOLATION TYPE:            DIIS
 INTERPOLATION STEPS:              2 (START)      1 (STEP)
 LEVEL SHIFTS:                 -0.30 (CLOSED)  0.00 (OPEN) 



 Orbital guess generated from atomic densities. Full valence occupancy:   32

 Molecular orbital dump at record        2100.2

 ITERATION    DDIFF          GRAD             ENERGY        2-EL.EN.            DIPOLE MOMENTS         DIIS
    1      0.000D+00      0.000D+00      -267.17829090    555.826392    0.56951    0.04958   -0.74792    0
    2      0.000D+00      0.617D-02      -267.24895141    555.750131    0.41397   -0.13109   -0.59850    1
    3      0.927D-02      0.214D-02      -267.26112307    555.667458    0.39362   -0.05912   -0.62594    2
    4      0.336D-02      0.912D-03      -267.26473020    555.820020    0.37907   -0.09927   -0.64249    3
    5      0.186D-02      0.363D-03      -267.26529931    555.791419    0.38160   -0.09278   -0.63553    4
    6      0.792D-03      0.110D-03      -267.26537573    555.777653    0.37985   -0.09257   -0.63829    5
    7      0.277D-03      0.511D-04      -267.26539587    555.774663    0.37913   -0.09231   -0.63779    6
    8      0.144D-03      0.273D-04      -267.26540193    555.772711    0.37940   -0.09242   -0.63800    7
    9      0.924D-04      0.115D-04      -267.26540284    555.773031    0.37958   -0.09238   -0.63776    8
   10      0.366D-04      0.500D-05      -267.26540300    555.773639    0.37984   -0.09240   -0.63783    9
   11      0.146D-04      0.196D-05      -267.26540303    555.773481    0.37989   -0.09239   -0.63783    9
   12      0.650D-05      0.670D-06      -267.26540303    555.773616    0.37991   -0.09239   -0.63783    9
   13      0.227D-05      0.226D-06      -267.26540303    555.773531    0.37991   -0.09239   -0.63782    9
   14      0.632D-06      0.759D-07      -267.26540303    555.773540    0.37991   -0.09239   -0.63782    9
   15      0.193D-06      0.301D-07      -267.26540303    555.773536    0.37992   -0.09239   -0.63782    9
   16      0.828D-07      0.146D-07      -267.26540303    555.773538    0.37992   -0.09239   -0.63782    9
   17      0.377D-07      0.755D-08      -267.26540303    555.773537    0.37992   -0.09239   -0.63782    9
   18      0.224D-07      0.343D-08      -267.26540303    555.773538    0.37992   -0.09239   -0.63782    9
   19      0.114D-07      0.133D-08      -267.26540303    555.773538    0.37992   -0.09239   -0.63782    9
   20      0.444D-08      0.569D-09      -267.26540303    555.773538    0.37992   -0.09239   -0.63782    9
   21      0.166D-08      0.287D-09      -267.26540303    555.773538    0.37992   -0.09239   -0.63782    9
   22      0.757D-09      0.162D-09      -267.26540303    555.773538    0.37992   -0.09239   -0.63782    9
   23      0.447D-09      0.798D-10      -267.26540303    555.773538    0.37992   -0.09239   -0.63782    9
   24      0.264D-09      0.317D-10      -267.26540303    555.773538    0.37992   -0.09239   -0.63782    9
   25      0.934D-10      0.129D-10      -267.26540303    555.773538    0.37992   -0.09239   -0.63782    0

 Final alpha occupancy:  21
 Final beta  occupancy:  20

 !RHF STATE 1.1 Energy               -267.265403031066
 Nuclear energy                       183.22846788
 One-electron energy                 -728.38063972
 Two-electron energy                  277.88676880
 Virial quotient                       -1.00155446
 !RHF STATE 1.1 Dipole moment           0.37991590    -0.09239366    -0.63782361
 Dipole moment /Debye                   0.96558665    -0.23482587    -1.62107973

 Orbital energies:

         1.1          2.1          3.1          4.1          5.1          6.1          7.1          8.1          9.1         10.1
    -20.630478   -20.628792   -11.279244   -11.237883   -11.232296    -1.470344    -1.240856    -1.023192    -0.945291    -0.768497

        11.1         12.1         13.1         14.1         15.1         16.1         17.1         18.1         19.1         20.1
     -0.704760    -0.642981    -0.626808    -0.588779    -0.545176    -0.543458    -0.538927    -0.516837    -0.493029    -0.469825

        21.1         22.1         23.1
     -0.352197     0.181321     0.183602


 **********************************************************************************************************************************
 DATASETS  * FILE   NREC   LENGTH (MB)   RECORD NAMES
              1      18        3.17       500      610      700      900      950      970     1000      129      960     1100   
                                          VAR    BASINP    GEOM    SYMINP    ZMAT    AOBASIS   BASIS     P2S    ABASIS      S 
                                         1400     1410     1200     1210     1080     1600     1650     1700   
                                           T        V       H0       H01     AOSYM     SMH    MOLCAS    OPER   

              2       3        0.77       700     1000     2100   
                                         GEOM     BASIS     RHF  

 PROGRAMS   *        TOTAL       RHF       INT
 CPU TIMES  *         1.70      0.88      0.74
 REAL TIME  *         2.25 SEC
 DISK USED  *       322.54 MB      
 SF USED    *         0.04 MB      
 GA USED    *         0.00 MB       (max)       0.00 MB       (current)
 **********************************************************************************************************************************


1PROGRAM * CCSD (Unrestricted open-shell coupled cluster)     Authors: C. Hampel, H.-J. Werner, 1991, M. Deegan, P.J. Knowles, 1992


 Convergence thresholds:  THRVAR = 1.00D-08  THRDEN = 1.00D-10

 CCSD(T)     terms to be evaluated (factor= 1.000)


 Number of core orbitals:           5 (   5 )
 Number of closed-shell orbitals:  15 (  15 )
 Number of active  orbitals:        1 (   1 )
 Number of external orbitals:      84 (  84 )

 Memory could be reduced to 24.91 Mwords without degradation in triples

 Number of N-1 electron functions:              31
 Number of N-2 electron functions:             465
 Number of singly external CSFs:              2635
 Number of doubly external CSFs:           2537250
 Total number of CSFs:                     2539885

 Molecular orbitals read from record     2100.2  Type=RHF/CANONICAL (state 1.1)

 Integral transformation finished. Total CPU:   0.70 sec, npass=  1  Memory used:  12.63 MW

 Starting RMP2 calculation

 ITER.      SQ.NORM     CORR.ENERGY   TOTAL ENERGY   ENERGY CHANGE        DEN1      VAR(S)    VAR(P)  DIIS     TIME
   1      1.24301921    -0.78636209  -268.05176512    -0.78636209    -0.00304958  0.20D-04  0.11D-02  1  1     0.96
   2      1.24566041    -0.78965085  -268.05505389    -0.00328876    -0.00000475  0.54D-06  0.19D-05  2  2     1.23
   3      1.24572597    -0.78969292  -268.05509596    -0.00004207    -0.00000003  0.16D-07  0.68D-08  3  3     1.52
   4      1.24572693    -0.78969293  -268.05509596    -0.00000000    -0.00000000  0.27D-09  0.38D-10  4  4     1.84
   5      1.24572701    -0.78969296  -268.05509599    -0.00000003    -0.00000000  0.25D-11  0.65D-12  5  5     2.18
   6      1.24572702    -0.78969296  -268.05509600    -0.00000001    -0.00000000  0.28D-13  0.87D-14  6  6     2.53
   7      1.24572702    -0.78969296  -268.05509600     0.00000000    -0.00000000  0.47D-15  0.12D-15  6  1     2.89
   8      1.24572702    -0.78969296  -268.05509600     0.00000000    -0.00000000  0.59D-17  0.13D-17  6  2     3.26

 Norm of t1 vector:      0.03894134      S-energy:    -0.00227241      T1 diagnostic:  0.00055042
 Norm of t2 vector:      0.49417668      P-energy:    -0.78742055
                                         Alpha-Beta:  -0.59340363
                                         Alpha-Alpha: -0.10093903
                                         Beta-Beta:   -0.09307789

 Spin contamination <S**2-Sz**2-Sz>     0.00104075
  Reference energy                   -267.265403031065
  RHF-RMP2 correlation energy          -0.789692964630
 !RHF-RMP2 energy                    -268.055095995695

 Starting UCCSD calculation

 ITER.      SQ.NORM     CORR.ENERGY   TOTAL ENERGY   ENERGY CHANGE        DEN1      VAR(S)    VAR(P)  DIIS     TIME
   1      1.26279958    -0.80904060  -268.07444363    -0.80904060    -0.02515400  0.38D-02  0.59D-02  1  1     9.48
   2      1.29157274    -0.83644842  -268.10185145    -0.02740782    -0.00201066  0.22D-03  0.66D-03  2  2    15.65
   3      1.30151256    -0.84094602  -268.10634905    -0.00449760    -0.00032454  0.19D-03  0.56D-04  3  3    21.87
   4      1.30642416    -0.84242283  -268.10782586    -0.00147681    -0.00007205  0.43D-04  0.14D-04  4  4    28.09
   5      1.30915279    -0.84281084  -268.10821387    -0.00038801    -0.00002365  0.19D-04  0.32D-05  5  5    34.32
   6      1.31109009    -0.84301516  -268.10841819    -0.00020432    -0.00000645  0.42D-05  0.12D-05  6  6    40.61
   7      1.31203790    -0.84307388  -268.10847691    -0.00005872    -0.00000208  0.14D-05  0.37D-06  6  2    46.89
   8      1.31247850    -0.84311649  -268.10851952    -0.00004261    -0.00000065  0.45D-06  0.11D-06  6  1    53.18
   9      1.31266339    -0.84312107  -268.10852410    -0.00000458    -0.00000022  0.15D-06  0.35D-07  6  4    59.45
  10      1.31272653    -0.84312400  -268.10852703    -0.00000293    -0.00000005  0.35D-07  0.95D-08  6  3    65.71
  11      1.31275601    -0.84312274  -268.10852577     0.00000126    -0.00000002  0.13D-07  0.28D-08  6  5    71.99
  12      1.31276636    -0.84312248  -268.10852551     0.00000026    -0.00000000  0.26D-08  0.95D-09  6  6    78.27
  13      1.31276520    -0.84312156  -268.10852459     0.00000092    -0.00000000  0.96D-09  0.28D-09  6  2    84.54
  14      1.31275999    -0.84312072  -268.10852375     0.00000085    -0.00000000  0.21D-09  0.67D-10  6  1    90.83
  15      1.31275591    -0.84312013  -268.10852316     0.00000059    -0.00000000  0.78D-10  0.19D-10  6  4    97.10
  16      1.31275274    -0.84311975  -268.10852278     0.00000038    -0.00000000  0.28D-10  0.63D-11  6  3   103.37
  17      1.31275054    -0.84311951  -268.10852254     0.00000024    -0.00000000  0.10D-10  0.24D-11  6  5   109.64
  18      1.31274964    -0.84311945  -268.10852248     0.00000006    -0.00000000  0.41D-11  0.87D-12  6  6   115.92
  19      1.31274903    -0.84311941  -268.10852245     0.00000003    -0.00000000  0.16D-11  0.37D-12  6  2   122.21
  20      1.31274871    -0.84311940  -268.10852243     0.00000001    -0.00000000  0.60D-12  0.13D-12  6  1   128.49
  21      1.31274855    -0.84311939  -268.10852242     0.00000001    -0.00000000  0.28D-12  0.58D-13  6  4   134.94
  22      1.31274843    -0.84311938  -268.10852242     0.00000001    -0.00000000  0.73D-13  0.21D-13  6  3   141.22
  23      1.31274837    -0.84311938  -268.10852241     0.00000000    -0.00000000  0.21D-13  0.62D-14  6  5   147.50
  24      1.31274837    -0.84311938  -268.10852241    -0.00000000    -0.00000000  0.67D-14  0.22D-14  6  6   153.80
  25      1.31274837    -0.84311938  -268.10852241    -0.00000000    -0.00000000  0.21D-14  0.52D-15  6  2   160.09
  26      1.31274838    -0.84311938  -268.10852242    -0.00000000    -0.00000000  0.76D-15  0.15D-15  6  1   166.36
  27      1.31274839    -0.84311938  -268.10852242    -0.00000000    -0.00000000  0.20D-15  0.62D-16  6  3   172.64
  28      1.31274839    -0.84311939  -268.10852242    -0.00000000    -0.00000000  0.29D-16  0.11D-16  6  4   178.92
  29      1.31274839    -0.84311939  -268.10852242    -0.00000000    -0.00000000  0.70D-17  0.29D-17  6  5   185.20
  30      1.31274840    -0.84311939  -268.10852242    -0.00000000    -0.00000000  0.15D-17  0.53D-18  6  6   191.47
  31      1.31274840    -0.84311939  -268.10852242    -0.00000000    -0.00000000  0.35D-18  0.10D-18  6  2   197.75

 Norm of t1 vector:      0.13869123      S-energy:    -0.00282207      T1 diagnostic:  0.01616548
                                                                       D1 diagnostic:  0.06281422
 Norm of t2 vector:      0.54176853      P-energy:    -0.84029731
                                         Alpha-Beta:  -0.66485299
                                         Alpha-Alpha: -0.09147329
                                         Beta-Beta:   -0.08397103

 Spin contamination <S**2-Sz**2-Sz>     0.00216966

 Memory could be reduced to 28.85 Mwords without degradation in triples
 

 RESULTS
 =======

  Reference energy                   -267.265403031065
  UCCSD singles energy                 -0.002822074826
  UCCSD pair energy                    -0.840297310830
  UCCSD correlation energy             -0.843119385656
  Triples (T) contribution             -0.024973451500
  Total correlation energy             -0.868092837156
 
  RHF-UCCSD energy                   -268.108522416721
  RHF-UCCSD[T] energy                -268.134831238088
  RHF-UCCSD-T energy                 -268.133074482129
 !RHF-UCCSD(T) energy                -268.133495868222

 Program statistics:

 Available memory in ccsd:               999997692
 Min. memory needed in ccsd:               7337057
 Max. memory used in ccsd:                10523002
 Max. memory used in cckext:              10867977 (31 integral passes)
 Max. memory used in cckint:              12633073 ( 1 integral passes)



 **********************************************************************************************************************************
 DATASETS  * FILE   NREC   LENGTH (MB)   RECORD NAMES
              1      18        3.17       500      610      700      900      950      970     1000      129      960     1100   
                                          VAR    BASINP    GEOM    SYMINP    ZMAT    AOBASIS   BASIS     P2S    ABASIS      S 
                                         1400     1410     1200     1210     1080     1600     1650     1700   
                                           T        V       H0       H01     AOSYM     SMH    MOLCAS    OPER   

              2       3        0.77       700     1000     2100   
                                         GEOM     BASIS     RHF  

 PROGRAMS   *        TOTAL  UCCSD(T)       RHF       INT
 CPU TIMES  *       244.41    242.70      0.88      0.74
 REAL TIME  *       254.79 SEC
 DISK USED  *         1.29 GB      
 SF USED    *       553.73 MB      
 GA USED    *         0.00 MB       (max)       0.00 MB       (current)
 **********************************************************************************************************************************

        UCCSD(T)        RHF-SCF 
   -268.13349587   -267.26540303
 **********************************************************************************************************************************
 Variable memory released
