
 Primary working directories    : /tmp/320938.882.gen6.q
 Secondary working directories  : /tmp/320938.882.gen6.q
 Wavefunction directory         : /home/vulcan/mel64643/wfu/
 Main file repository           : /tmp/320938.882.gen6.q/

 ARCHNAME  : Linux/x86_64
 FC        : /opt/intel/compilers_and_libraries_2016.1.150/linux/bin/intel64/ifort
 FCVERSION : 16.0.1
 BLASLIB   : -mkl
 id        : ccgc

 Nodes     nprocs
 n090         3
 Number of processes for MPI-2 version of Molpro:   nprocs(total)=    4   nprocs(compute)=    3   nprocs(helper)=    1
 ga_uses_ma=false, calling ma_init with nominal heap.
 GA-space will be limited to   8.0 MW (determined by -G option)

 Using customized tuning parameters: mindgm=10; mindgv=16; mindgc=4; mindgr=1; noblas=0; mincuda=1000; minvec=7
 default implementation of scratch files=sf  

 ***,Frequencies for min3
 memory,1000,m
 gthresh,energy=1.0d-10,orbital=1.0d-10,oneint=1.0d-16,twoint=1.0d-16,optgrad=1.0d-6,compress=1.0d-13
 geomtyp=xyz
 
  geometry = {
  12
  arbitrary comment
     C    1.776964391707    0.711398808326   -0.046821519474
     C    0.491772914207   -0.060028174781   -0.196761682970
     C    0.450345077466   -1.535675006401    0.101393162048
     O   -0.560658843246    0.727052551425    0.254262147396
     O   -1.837887304538    0.092196623753   -0.120378984749
     H    2.585248305073    0.210727737168   -0.612150625528
     H    1.660540350492    1.742302121775   -0.427309466960
     H    2.095384161145    0.773634355029    1.016944614523
     H   -0.505213008681   -1.983041532744   -0.219855090615
     H    1.281506067902   -2.047738823343   -0.417259811411
     H    0.561747593114   -1.719350947886    1.194727547320
     H   -1.988193638289    0.550648837677   -0.966887663553
  }
 
 basis=cc-pvdz
 {rhf;maxit,200}
 {uccsd(t);maxit,200}

 Variables initialized (661), CPU time= 0.00 sec
 Commands  initialized (458), CPU time= 0.01 sec, 486 directives.
 Default parameters read. Elapsed time= 0.06 sec

 Checking input...
 Passed
1


                                         ***  PROGRAM SYSTEM MOLPRO  ***
                         Copyright, University College Cardiff Consultants Limited, 2008

                                    Version 2010.1 linked May 16 2016 07:17:05


 **********************************************************************************************************************************
 LABEL *   Frequencies for min3                                                          
 Linux-4.4.3/n090(x86_64) 64 bit mpp version                                             DATE: 07-Mar-20          TIME: 06:10:05  
 **********************************************************************************************************************************

 SHA1:             9e8077add272b0f3cad6f7df79ec5211205f459d
 **********************************************************************************************************************************

 THRESHOLDS:

 ZERO    =  1.00D-12  ONEINT  =  1.00D-16  TWOINT  =  1.00D-16  PREFAC  =  1.00D-14  LOCALI  =  1.00D-09  EORDER  =  1.00D-04
 ENERGY  =  1.00D-10  ETEST   =  0.00D+00  EDENS   =  0.00D+00  THRDEDEF=  1.00D-06  GRADIENT=  1.00D-02  STEP    =  1.00D-03
 ORBITAL =  1.00D-10  CIVEC   =  1.00D-05  COEFF   =  1.00D-04  PRINTCI =  5.00D-02  PUNCHCI =  9.90D+01  OPTGRAD =  1.00D-06
 OPTENERG=  1.00D-06  OPTSTEP =  3.00D-04  THRGRAD =  1.00D-10  COMPRESS=  1.00D-13  VARMIN  =  1.00D-07  VARMAX  =  1.00D-03
 THRDOUB =  0.00D+00  THRDIV  =  1.00D-05  THRRED  =  1.00D-07  THRPSP  =  1.00D+00  THRDC   =  1.00D-10  THRCS   =  1.00D-10
 THRNRM  =  1.00D-08  THREQ   =  0.00D+00  THRDE   =  1.00D+00  THRREF  =  1.00D-05  SPARFAC =  1.00D+00  THRDLP  =  1.00D-07
 THRDIA  =  1.00D-10  THRDLS  =  1.00D-07  THRGPS  =  0.00D+00  THRKEX  =  0.00D+00  THRDIS  =  2.00D-01  THRVAR  =  1.00D-10
 THRLOC  =  1.00D-06  THRGAP  =  1.00D-06  THRLOCT = -1.00D+00  THRGAPT = -1.00D+00  THRORB  =  1.00D-06  THRMLTP =  0.00D+00
 THRCPQCI=  1.00D-10  KEXTA   =  0.00D+00  THRCOARS=  0.00D+00  SYMTOL  =  1.00D-06  GRADTOL =  1.00D-06  THROVL  =  1.00D-08
 THRORTH =  1.00D-08  GRID    =  1.00D-06  GRIDMAX =  1.00D-03  DTMAX   =  0.00D+00

 SETTING GEOMTYP        =    XYZ

 Variable memory set to 1000000000 words,  buffer space   230000 words

 SETTING BASIS          =    CC-PVDZ


 Recomputing integrals since basis changed


 Using spherical harmonics

 Library entry C      S cc-pVDZ              selected for orbital group  1
 Library entry C      P cc-pVDZ              selected for orbital group  1
 Library entry C      D cc-pVDZ              selected for orbital group  1
 Library entry O      S cc-pVDZ              selected for orbital group  2
 Library entry O      P cc-pVDZ              selected for orbital group  2
 Library entry O      D cc-pVDZ              selected for orbital group  2
 Library entry H      S cc-pVDZ              selected for orbital group  3
 Library entry H      P cc-pVDZ              selected for orbital group  3

1PROGRAM * SEWARD (Integral evaluation for generally contracted gaussian basis sets)     Author: Roland Lindh, 1990

 Geometry written to block  1 of record 700


 Point group  C1  



 ATOMIC COORDINATES

 NR  ATOM    CHARGE       X              Y              Z

   1  C       6.00    3.357976046    1.344348918   -0.088479849
   2  C       6.00    0.929316127   -0.113436811   -0.371825694
   3  C       6.00    0.851028861   -2.902005189    0.191605308
   4  O       8.00   -1.059491667    1.373930205    0.480485824
   5  O       8.00   -3.473103666    0.174226369   -0.227483313
   6  H       1.00    4.885411278    0.398217712   -1.156797033
   7  H       1.00    3.137966493    3.292473848   -0.807497866
   8  H       1.00    3.959702205    1.461957057    1.921746812
   9  H       1.00   -0.954714224   -3.747405404   -0.415465910
  10  H       1.00    2.421695504   -3.869665565   -0.788506769
  11  H       1.00    1.061549106   -3.249102415    2.257707866
  12  H       1.00   -3.757141473    1.040575498   -1.827152884

 Bond lengths in Bohr (Angstrom)

 1-2  2.846719709  1-6  2.090340703  1-7  2.088200627  1-8  2.101646325  2-3  2.845996660
     ( 1.506419190)     ( 1.106160659)     ( 1.105028179)     ( 1.112143336)     ( 1.506036570)

  2- 4  2.625652681   3- 9  2.084213300   3-10  2.089014119   3-11  2.105605623   4- 5  2.786760211
       ( 1.389435558)       ( 1.102918177)       ( 1.105458661)       ( 1.114238507)       ( 1.474689991)

  5-12  1.841244423
       ( 0.974344585)

 Bond angles

  1-2-3  120.36606915   1-2-4  108.89397676   2-1-6  109.92246384   2-1-7  110.70670393

  2- 1- 8  111.60010507   2- 3- 9  111.32173160   2- 3-10  109.89518913   2- 3-11  110.67255978

  2- 4- 5  109.25026955   3- 2- 4  118.03070163   4- 5-12   98.72910008   6- 1- 7  108.86083615

  6- 1- 8  107.75572410   7- 1- 8  107.89692553   9- 3-10  109.07871674   9- 3-11  107.79214865

 10- 3-11  107.98943015

 NUCLEAR CHARGE:                   41
 NUMBER OF PRIMITIVE AOS:         184
 NUMBER OF SYMMETRY AOS:          179
 NUMBER OF CONTRACTIONS:          105   ( 105A   )
 NUMBER OF CORE ORBITALS:           5   (   5A   )
 NUMBER OF VALENCE ORBITALS:       27   (  27A   )


 NUCLEAR REPULSION ENERGY  183.23475753


 Eigenvalues of metric

         1 0.345E-02 0.435E-02 0.105E-01 0.141E-01 0.182E-01 0.214E-01 0.331E-01 0.345E-01


 Contracted 2-electron integrals neglected if value below      1.0D-16
 AO integral compression algorithm  1   Integral accuracy      1.0D-16

     127.664 MB (compressed) written to integral file ( 93.2%)

     Node minimum: 40.632 MB, node maximum: 43.778 MB


 NUMBER OF SORTED TWO-ELECTRON INTEGRALS:    5164320.     BUFFER LENGTH:  32768
 NUMBER OF SEGMENTS:   1  SEGMENT LENGTH:    5164320      RECORD LENGTH: 524288

 Memory used in sort:       5.72 MW

 SORT1 READ    17075251. AND WROTE     5135898. INTEGRALS IN     15 RECORDS. CPU TIME:     0.20 SEC, REAL TIME:     0.23 SEC
 SORT2 READ    15396616. AND WROTE    15487395. INTEGRALS IN    501 RECORDS. CPU TIME:     0.06 SEC, REAL TIME:     0.09 SEC

 Node minimum:     5160610.  Node maximum:     5164320. integrals

 OPERATOR DM      FOR CENTER  0  COORDINATES:    0.000000    0.000000    0.000000


 **********************************************************************************************************************************
 DATASETS  * FILE   NREC   LENGTH (MB)   RECORD NAMES
              1      18        3.17       500      610      700      900      950      970     1000      129      960     1100   
                                          VAR    BASINP    GEOM    SYMINP    ZMAT    AOBASIS   BASIS     P2S    ABASIS      S 
                                         1400     1410     1200     1210     1080     1600     1650     1700   
                                           T        V       H0       H01     AOSYM     SMH    MOLCAS    OPER   

 PROGRAMS   *        TOTAL       INT
 CPU TIMES  *         0.82      0.76
 REAL TIME  *         1.26 SEC
 DISK USED  *       305.97 MB      
 GA USED    *         0.00 MB       (max)       0.00 MB       (current)
 **********************************************************************************************************************************

1PROGRAM * RHF-SCF (OPEN SHELL)       Authors: W. Meyer, H.-J. Werner


 NUMBER OF ELECTRONS:      21+   20-    SPACE SYMMETRY=1    SPIN SYMMETRY: Doublet 
 CONVERGENCE THRESHOLDS:    1.00E-10 (Density)    1.00E-11 (Energy)
 MAX. NUMBER OF ITERATIONS:      200
 INTERPOLATION TYPE:            DIIS
 INTERPOLATION STEPS:              2 (START)      1 (STEP)
 LEVEL SHIFTS:                 -0.30 (CLOSED)  0.00 (OPEN) 



 Orbital guess generated from atomic densities. Full valence occupancy:   32

 Molecular orbital dump at record        2100.2

 ITERATION    DDIFF          GRAD             ENERGY        2-EL.EN.            DIPOLE MOMENTS         DIIS
    1      0.000D+00      0.000D+00      -267.17825977    555.844281    0.56955    0.04823   -0.75055    0
    2      0.000D+00      0.617D-02      -267.24893269    555.763722    0.41382   -0.13150   -0.59883    1
    3      0.927D-02      0.214D-02      -267.26110615    555.681912    0.39351   -0.05931   -0.62595    2
    4      0.336D-02      0.912D-03      -267.26471356    555.834116    0.37892   -0.09933   -0.64221    3
    5      0.186D-02      0.364D-03      -267.26528250    555.805353    0.38144   -0.09277   -0.63508    4
    6      0.792D-03      0.110D-03      -267.26535887    555.791609    0.37969   -0.09255   -0.63779    5
    7      0.277D-03      0.511D-04      -267.26537897    555.788601    0.37897   -0.09229   -0.63727    6
    8      0.144D-03      0.272D-04      -267.26538501    555.786650    0.37924   -0.09240   -0.63748    7
    9      0.923D-04      0.115D-04      -267.26538593    555.786968    0.37942   -0.09236   -0.63724    8
   10      0.366D-04      0.501D-05      -267.26538609    555.787577    0.37968   -0.09237   -0.63731    9
   11      0.146D-04      0.196D-05      -267.26538611    555.787420    0.37973   -0.09237   -0.63731    9
   12      0.650D-05      0.670D-06      -267.26538612    555.787554    0.37975   -0.09237   -0.63731    9
   13      0.227D-05      0.226D-06      -267.26538612    555.787470    0.37975   -0.09237   -0.63730    9
   14      0.631D-06      0.757D-07      -267.26538612    555.787478    0.37975   -0.09237   -0.63730    9
   15      0.193D-06      0.300D-07      -267.26538612    555.787474    0.37976   -0.09237   -0.63730    9
   16      0.825D-07      0.145D-07      -267.26538612    555.787476    0.37976   -0.09237   -0.63730    9
   17      0.374D-07      0.750D-08      -267.26538612    555.787476    0.37976   -0.09237   -0.63730    9
   18      0.222D-07      0.342D-08      -267.26538612    555.787476    0.37976   -0.09237   -0.63730    9
   19      0.114D-07      0.133D-08      -267.26538612    555.787476    0.37976   -0.09237   -0.63730    9
   20      0.444D-08      0.567D-09      -267.26538612    555.787476    0.37976   -0.09237   -0.63730    9
   21      0.166D-08      0.286D-09      -267.26538612    555.787476    0.37976   -0.09237   -0.63730    9
   22      0.753D-09      0.161D-09      -267.26538612    555.787476    0.37976   -0.09237   -0.63730    9
   23      0.445D-09      0.795D-10      -267.26538612    555.787476    0.37976   -0.09237   -0.63730    9
   24      0.263D-09      0.316D-10      -267.26538612    555.787476    0.37976   -0.09237   -0.63730    9
   25      0.930D-10      0.129D-10      -267.26538612    555.787476    0.37976   -0.09237   -0.63730    0

 Final alpha occupancy:  21
 Final beta  occupancy:  20

 !RHF STATE 1.1 Energy               -267.265386117399
 Nuclear energy                       183.23475753
 One-electron energy                 -728.39388167
 Two-electron energy                  277.89373802
 Virial quotient                       -1.00155355
 !RHF STATE 1.1 Dipole moment           0.37975617    -0.09237023    -0.63730456
 Dipole moment /Debye                   0.96518069    -0.23476633    -1.61976052

 Orbital energies:

         1.1          2.1          3.1          4.1          5.1          6.1          7.1          8.1          9.1         10.1
    -20.630474   -20.628815   -11.279253   -11.237843   -11.232216    -1.470204    -1.240794    -1.023251    -0.945329    -0.768482

        11.1         12.1         13.1         14.1         15.1         16.1         17.1         18.1         19.1         20.1
     -0.704614    -0.643026    -0.626773    -0.588982    -0.544964    -0.543318    -0.538991    -0.516848    -0.493032    -0.469802

        21.1         22.1         23.1
     -0.352389     0.181273     0.183525


 **********************************************************************************************************************************
 DATASETS  * FILE   NREC   LENGTH (MB)   RECORD NAMES
              1      18        3.17       500      610      700      900      950      970     1000      129      960     1100   
                                          VAR    BASINP    GEOM    SYMINP    ZMAT    AOBASIS   BASIS     P2S    ABASIS      S 
                                         1400     1410     1200     1210     1080     1600     1650     1700   
                                           T        V       H0       H01     AOSYM     SMH    MOLCAS    OPER   

              2       3        0.77       700     1000     2100   
                                         GEOM     BASIS     RHF  

 PROGRAMS   *        TOTAL       RHF       INT
 CPU TIMES  *         1.74      0.92      0.76
 REAL TIME  *         2.34 SEC
 DISK USED  *       322.54 MB      
 SF USED    *         0.04 MB      
 GA USED    *         0.00 MB       (max)       0.00 MB       (current)
 **********************************************************************************************************************************


1PROGRAM * CCSD (Unrestricted open-shell coupled cluster)     Authors: C. Hampel, H.-J. Werner, 1991, M. Deegan, P.J. Knowles, 1992


 Convergence thresholds:  THRVAR = 1.00D-08  THRDEN = 1.00D-10

 CCSD(T)     terms to be evaluated (factor= 1.000)


 Number of core orbitals:           5 (   5 )
 Number of closed-shell orbitals:  15 (  15 )
 Number of active  orbitals:        1 (   1 )
 Number of external orbitals:      84 (  84 )

 Memory could be reduced to 24.91 Mwords without degradation in triples

 Number of N-1 electron functions:              31
 Number of N-2 electron functions:             465
 Number of singly external CSFs:              2635
 Number of doubly external CSFs:           2537250
 Total number of CSFs:                     2539885

 Molecular orbitals read from record     2100.2  Type=RHF/CANONICAL (state 1.1)

 Integral transformation finished. Total CPU:   0.71 sec, npass=  1  Memory used:  12.63 MW

 Starting RMP2 calculation

 ITER.      SQ.NORM     CORR.ENERGY   TOTAL ENERGY   ENERGY CHANGE        DEN1      VAR(S)    VAR(P)  DIIS     TIME
   1      1.24303027    -0.78638211  -268.05176823    -0.78638211    -0.00304983  0.20D-04  0.11D-02  1  1     0.96
   2      1.24567168    -0.78967115  -268.05505726    -0.00328904    -0.00000474  0.54D-06  0.19D-05  2  2     1.20
   3      1.24573722    -0.78971321  -268.05509932    -0.00004206    -0.00000003  0.16D-07  0.68D-08  3  3     1.46
   4      1.24573818    -0.78971321  -268.05509933    -0.00000000    -0.00000000  0.27D-09  0.38D-10  4  4     1.74
   5      1.24573826    -0.78971324  -268.05509936    -0.00000003    -0.00000000  0.25D-11  0.65D-12  5  5     2.05
   6      1.24573827    -0.78971325  -268.05509936    -0.00000001    -0.00000000  0.28D-13  0.87D-14  6  6     2.38
   7      1.24573827    -0.78971325  -268.05509936     0.00000000    -0.00000000  0.47D-15  0.12D-15  6  1     2.72
   8      1.24573827    -0.78971325  -268.05509936     0.00000000    -0.00000000  0.59D-17  0.13D-17  6  2     3.05

 Norm of t1 vector:      0.03891689      S-energy:    -0.00227032      T1 diagnostic:  0.00055024
 Norm of t2 vector:      0.49418999      P-energy:    -0.78744293
                                         Alpha-Beta:  -0.59341876
                                         Alpha-Alpha: -0.10094132
                                         Beta-Beta:   -0.09308285

 Spin contamination <S**2-Sz**2-Sz>     0.00103948
  Reference energy                   -267.265386117401
  RHF-RMP2 correlation energy          -0.789713246628
 !RHF-RMP2 energy                    -268.055099364029

 Starting UCCSD calculation

 ITER.      SQ.NORM     CORR.ENERGY   TOTAL ENERGY   ENERGY CHANGE        DEN1      VAR(S)    VAR(P)  DIIS     TIME
   1      1.26280336    -0.80905089  -268.07443701    -0.80905089    -0.02515647  0.38D-02  0.59D-02  1  1     7.79
   2      1.29157915    -0.83646062  -268.10184673    -0.02740973    -0.00201128  0.22D-03  0.66D-03  2  2    12.52
   3      1.30152190    -0.84095937  -268.10634548    -0.00449875    -0.00032467  0.19D-03  0.56D-04  3  3    17.27
   4      1.30643591    -0.84243670  -268.10782282    -0.00147734    -0.00007209  0.43D-04  0.14D-04  4  4    22.05
   5      1.30916632    -0.84282493  -268.10821105    -0.00038822    -0.00002367  0.19D-04  0.32D-05  5  5    26.86
   6      1.31110529    -0.84302940  -268.10841552    -0.00020447    -0.00000645  0.42D-05  0.12D-05  6  6    31.69
   7      1.31205404    -0.84308816  -268.10847428    -0.00005876    -0.00000208  0.14D-05  0.37D-06  6  2    36.51
   8      1.31249514    -0.84313081  -268.10851693    -0.00004265    -0.00000065  0.45D-06  0.11D-06  6  1    41.37
   9      1.31268021    -0.84313540  -268.10852151    -0.00000458    -0.00000022  0.15D-06  0.35D-07  6  4    46.21
  10      1.31274331    -0.84313832  -268.10852444    -0.00000293    -0.00000005  0.35D-07  0.95D-08  6  3    51.05
  11      1.31277283    -0.84313707  -268.10852318     0.00000126    -0.00000002  0.13D-07  0.28D-08  6  5    55.91
  12      1.31278321    -0.84313681  -268.10852292     0.00000026    -0.00000000  0.26D-08  0.95D-09  6  6    60.74
  13      1.31278206    -0.84313589  -268.10852201     0.00000092    -0.00000000  0.96D-09  0.28D-09  6  2    65.58
  14      1.31277685    -0.84313504  -268.10852116     0.00000085    -0.00000000  0.21D-09  0.67D-10  6  1    70.41
  15      1.31277277    -0.84313446  -268.10852057     0.00000059    -0.00000000  0.78D-10  0.19D-10  6  4    75.22
  16      1.31276959    -0.84313407  -268.10852019     0.00000038    -0.00000000  0.28D-10  0.63D-11  6  3    80.07
  17      1.31276739    -0.84313384  -268.10851995     0.00000024    -0.00000000  0.10D-10  0.24D-11  6  5    84.92
  18      1.31276649    -0.84313378  -268.10851989     0.00000006    -0.00000000  0.41D-11  0.87D-12  6  6    89.76
  19      1.31276588    -0.84313374  -268.10851986     0.00000003    -0.00000000  0.16D-11  0.37D-12  6  2    94.60
  20      1.31276556    -0.84313373  -268.10851985     0.00000001    -0.00000000  0.60D-12  0.13D-12  6  1    99.45
  21      1.31276540    -0.84313372  -268.10851984     0.00000001    -0.00000000  0.28D-12  0.58D-13  6  4   104.30
  22      1.31276528    -0.84313371  -268.10851983     0.00000001    -0.00000000  0.74D-13  0.21D-13  6  3   109.18
  23      1.31276522    -0.84313371  -268.10851983     0.00000000    -0.00000000  0.21D-13  0.63D-14  6  5   114.04
  24      1.31276521    -0.84313371  -268.10851983    -0.00000000    -0.00000000  0.67D-14  0.22D-14  6  6   118.89
  25      1.31276522    -0.84313371  -268.10851983    -0.00000000    -0.00000000  0.21D-14  0.52D-15  6  2   123.74
  26      1.31276522    -0.84313371  -268.10851983    -0.00000000    -0.00000000  0.77D-15  0.15D-15  6  1   128.58
  27      1.31276523    -0.84313371  -268.10851983    -0.00000000    -0.00000000  0.20D-15  0.62D-16  6  3   133.42
  28      1.31276524    -0.84313371  -268.10851983    -0.00000000    -0.00000000  0.30D-16  0.11D-16  6  4   138.27
  29      1.31276524    -0.84313371  -268.10851983    -0.00000000    -0.00000000  0.70D-17  0.29D-17  6  5   143.13
  30      1.31276524    -0.84313371  -268.10851983    -0.00000000    -0.00000000  0.15D-17  0.54D-18  6  6   147.98
  31      1.31276524    -0.84313371  -268.10851983    -0.00000000    -0.00000000  0.35D-18  0.10D-18  6  2   152.83

 Norm of t1 vector:      0.13871205      S-energy:    -0.00281950      T1 diagnostic:  0.01617005
                                                                       D1 diagnostic:  0.06284507
 Norm of t2 vector:      0.54177875      P-energy:    -0.84031421
                                         Alpha-Beta:  -0.66486669
                                         Alpha-Alpha: -0.09147362
                                         Beta-Beta:   -0.08397390

 Spin contamination <S**2-Sz**2-Sz>     0.00216967

 Memory could be reduced to 28.85 Mwords without degradation in triples
 

 RESULTS
 =======

  Reference energy                   -267.265386117401
  UCCSD singles energy                 -0.002819501293
  UCCSD pair energy                    -0.840314210643
  UCCSD correlation energy             -0.843133711936
  Triples (T) contribution             -0.024976003937
  Total correlation energy             -0.868109715873
 
  RHF-UCCSD energy                   -268.108519829337
  RHF-UCCSD[T] energy                -268.134831772858
  RHF-UCCSD-T energy                 -268.133074399833
 !RHF-UCCSD(T) energy                -268.133495833274

 Program statistics:

 Available memory in ccsd:               999997692
 Min. memory needed in ccsd:               7337057
 Max. memory used in ccsd:                10523002
 Max. memory used in cckext:              10867977 (31 integral passes)
 Max. memory used in cckint:              12633073 ( 1 integral passes)



 **********************************************************************************************************************************
 DATASETS  * FILE   NREC   LENGTH (MB)   RECORD NAMES
              1      18        3.17       500      610      700      900      950      970     1000      129      960     1100   
                                          VAR    BASINP    GEOM    SYMINP    ZMAT    AOBASIS   BASIS     P2S    ABASIS      S 
                                         1400     1410     1200     1210     1080     1600     1650     1700   
                                           T        V       H0       H01     AOSYM     SMH    MOLCAS    OPER   

              2       3        0.77       700     1000     2100   
                                         GEOM     BASIS     RHF  

 PROGRAMS   *        TOTAL  UCCSD(T)       RHF       INT
 CPU TIMES  *       192.16    190.42      0.92      0.76
 REAL TIME  *       201.98 SEC
 DISK USED  *         1.29 GB      
 SF USED    *       553.73 MB      
 GA USED    *         0.00 MB       (max)       0.00 MB       (current)
 **********************************************************************************************************************************

        UCCSD(T)        RHF-SCF 
   -268.13349583   -267.26538612
 **********************************************************************************************************************************
 Variable memory released
