
 Primary working directories    : /tmp/320938.139.gen4.q
 Secondary working directories  : /tmp/320938.139.gen4.q
 Wavefunction directory         : /home/vulcan/mel64643/wfu/
 Main file repository           : /tmp/320938.139.gen4.q/

 ARCHNAME  : Linux/x86_64
 FC        : /opt/intel/compilers_and_libraries_2016.1.150/linux/bin/intel64/ifort
 FCVERSION : 16.0.1
 BLASLIB   : -mkl
 id        : ccgc

 Nodes     nprocs
 n051         3
 Number of processes for MPI-2 version of Molpro:   nprocs(total)=    4   nprocs(compute)=    3   nprocs(helper)=    1
 ga_uses_ma=false, calling ma_init with nominal heap.
 GA-space will be limited to   8.0 MW (determined by -G option)

 Using customized tuning parameters: mindgm=10; mindgv=16; mindgc=4; mindgr=1; noblas=0; mincuda=1000; minvec=7
 default implementation of scratch files=sf  

 ***,Frequencies for min3
 memory,1000,m
 gthresh,energy=1.0d-10,orbital=1.0d-10,oneint=1.0d-16,twoint=1.0d-16,optgrad=1.0d-6,compress=1.0d-13
 geomtyp=xyz
 
  geometry = {
  12
  arbitrary comment
     C    1.776964391707    0.711398808326   -0.047331391796
     C    0.491811976407   -0.059992870174   -0.196493901896
     C    0.450332819107   -1.536294019674    0.101417522804
     O   -0.560767745493    0.727234937526    0.254453964104
     O   -1.837840335593    0.092269037726   -0.120531795196
     H    2.585373063107    0.213706752431   -0.611492437628
     H    1.660863214809    1.742233884566   -0.426776314142
     H    2.097351391698    0.773985733534    1.018183175701
     H   -0.505405710643   -1.983206670451   -0.220240352415
     H    1.281417378216   -2.047361729683   -0.416879319353
     H    0.560864619147   -1.719466318194    1.194853417298
     H   -1.988780347885    0.550196352479   -0.967465243729
  }
 
 basis=cc-pvdz
 {rhf;maxit,200}
 {uccsd(t);maxit,200}

 Variables initialized (661), CPU time= 0.00 sec
 Commands  initialized (458), CPU time= 0.00 sec, 486 directives.
 Default parameters read. Elapsed time= 0.05 sec

 Checking input...
 Passed
1


                                         ***  PROGRAM SYSTEM MOLPRO  ***
                         Copyright, University College Cardiff Consultants Limited, 2008

                                    Version 2010.1 linked May 16 2016 07:17:05


 **********************************************************************************************************************************
 LABEL *   Frequencies for min3                                                          
 Linux-4.4.3/n051(x86_64) 64 bit mpp version                                             DATE: 07-Mar-20          TIME: 01:46:20  
 **********************************************************************************************************************************

 SHA1:             9e8077add272b0f3cad6f7df79ec5211205f459d
 **********************************************************************************************************************************

 THRESHOLDS:

 ZERO    =  1.00D-12  ONEINT  =  1.00D-16  TWOINT  =  1.00D-16  PREFAC  =  1.00D-14  LOCALI  =  1.00D-09  EORDER  =  1.00D-04
 ENERGY  =  1.00D-10  ETEST   =  0.00D+00  EDENS   =  0.00D+00  THRDEDEF=  1.00D-06  GRADIENT=  1.00D-02  STEP    =  1.00D-03
 ORBITAL =  1.00D-10  CIVEC   =  1.00D-05  COEFF   =  1.00D-04  PRINTCI =  5.00D-02  PUNCHCI =  9.90D+01  OPTGRAD =  1.00D-06
 OPTENERG=  1.00D-06  OPTSTEP =  3.00D-04  THRGRAD =  1.00D-10  COMPRESS=  1.00D-13  VARMIN  =  1.00D-07  VARMAX  =  1.00D-03
 THRDOUB =  0.00D+00  THRDIV  =  1.00D-05  THRRED  =  1.00D-07  THRPSP  =  1.00D+00  THRDC   =  1.00D-10  THRCS   =  1.00D-10
 THRNRM  =  1.00D-08  THREQ   =  0.00D+00  THRDE   =  1.00D+00  THRREF  =  1.00D-05  SPARFAC =  1.00D+00  THRDLP  =  1.00D-07
 THRDIA  =  1.00D-10  THRDLS  =  1.00D-07  THRGPS  =  0.00D+00  THRKEX  =  0.00D+00  THRDIS  =  2.00D-01  THRVAR  =  1.00D-10
 THRLOC  =  1.00D-06  THRGAP  =  1.00D-06  THRLOCT = -1.00D+00  THRGAPT = -1.00D+00  THRORB  =  1.00D-06  THRMLTP =  0.00D+00
 THRCPQCI=  1.00D-10  KEXTA   =  0.00D+00  THRCOARS=  0.00D+00  SYMTOL  =  1.00D-06  GRADTOL =  1.00D-06  THROVL  =  1.00D-08
 THRORTH =  1.00D-08  GRID    =  1.00D-06  GRIDMAX =  1.00D-03  DTMAX   =  0.00D+00

 SETTING GEOMTYP        =    XYZ

 Variable memory set to 1000000000 words,  buffer space   230000 words

 SETTING BASIS          =    CC-PVDZ


 Recomputing integrals since basis changed


 Using spherical harmonics

 Library entry C      S cc-pVDZ              selected for orbital group  1
 Library entry C      P cc-pVDZ              selected for orbital group  1
 Library entry C      D cc-pVDZ              selected for orbital group  1
 Library entry O      S cc-pVDZ              selected for orbital group  2
 Library entry O      P cc-pVDZ              selected for orbital group  2
 Library entry O      D cc-pVDZ              selected for orbital group  2
 Library entry H      S cc-pVDZ              selected for orbital group  3
 Library entry H      P cc-pVDZ              selected for orbital group  3

1PROGRAM * SEWARD (Integral evaluation for generally contracted gaussian basis sets)     Author: Roland Lindh, 1990

 Geometry written to block  1 of record 700


 Point group  C1  



 ATOMIC COORDINATES

 NR  ATOM    CHARGE       X              Y              Z

   1  C       6.00    3.357976046    1.344348918   -0.089443368
   2  C       6.00    0.929389944   -0.113370094   -0.371319661
   3  C       6.00    0.851005696   -2.903174955    0.191651343
   4  O       8.00   -1.059697462    1.374274865    0.480848305
   5  O       8.00   -3.473014908    0.174363212   -0.227772083
   6  H       1.00    4.885647037    0.403847235   -1.155553239
   7  H       1.00    3.138576618    3.292344899   -0.806490353
   8  H       1.00    3.963419732    1.462621066    1.924087354
   9  H       1.00   -0.955078378   -3.747717469   -0.416193949
  10  H       1.00    2.421527905   -3.868952961   -0.787787743
  11  H       1.00    1.059880527   -3.249320434    2.257945726
  12  H       1.00   -3.758250193    1.039720425   -1.828244352

 Bond lengths in Bohr (Angstrom)

 1-2  2.846476668  1-6  2.086842670  1-7  2.087338216  1-8  2.105909857  2-3  2.847119878
     ( 1.506290578)     ( 1.104309580)     ( 1.104571812)     ( 1.114399500)     ( 1.506630951)

  2- 4  2.625975338   3- 9  2.084386635   3-10  2.087718393   3-11  2.105473311   4- 5  2.786760112
       ( 1.389606300)       ( 1.103009902)       ( 1.104772993)       ( 1.114168490)       ( 1.474689938)

  5-12  1.841660598
       ( 0.974564815)

 Bond angles

  1-2-3  120.37866573   1-2-4  108.90555081   2-1-6  110.07116632   2-1-7  110.74629322

  2- 1- 8  111.63754641   2- 3- 9  111.29755604   2- 3-10  109.86536819   2- 3-11  110.63515628

  2- 4- 5  109.23946113   3- 2- 4  118.03986083   4- 5-12   98.78841322   6- 1- 7  108.78667071

  6- 1- 8  107.65657503   7- 1- 8  107.83391962   9- 3-10  109.12204010   9- 3-11  107.79064301

 10- 3-11  108.04305701

 NUCLEAR CHARGE:                   41
 NUMBER OF PRIMITIVE AOS:         184
 NUMBER OF SYMMETRY AOS:          179
 NUMBER OF CONTRACTIONS:          105   ( 105A   )
 NUMBER OF CORE ORBITALS:           5   (   5A   )
 NUMBER OF VALENCE ORBITALS:       27   (  27A   )


 NUCLEAR REPULSION ENERGY  183.21559492


 Eigenvalues of metric

         1 0.345E-02 0.435E-02 0.105E-01 0.141E-01 0.182E-01 0.214E-01 0.331E-01 0.345E-01


 Contracted 2-electron integrals neglected if value below      1.0D-16
 AO integral compression algorithm  1   Integral accuracy      1.0D-16

     127.402 MB (compressed) written to integral file ( 93.4%)

     Node minimum: 40.632 MB, node maximum: 45.089 MB


 NUMBER OF SORTED TWO-ELECTRON INTEGRALS:    5164320.     BUFFER LENGTH:  32768
 NUMBER OF SEGMENTS:   1  SEGMENT LENGTH:    5164320      RECORD LENGTH: 524288

 Memory used in sort:       5.72 MW

 SORT1 READ    17075251. AND WROTE     5135889. INTEGRALS IN     15 RECORDS. CPU TIME:     0.21 SEC, REAL TIME:     0.24 SEC
 SORT2 READ    15396560. AND WROTE    15487395. INTEGRALS IN    477 RECORDS. CPU TIME:     0.07 SEC, REAL TIME:     0.11 SEC

 Node minimum:     5160610.  Node maximum:     5164320. integrals

 OPERATOR DM      FOR CENTER  0  COORDINATES:    0.000000    0.000000    0.000000


 **********************************************************************************************************************************
 DATASETS  * FILE   NREC   LENGTH (MB)   RECORD NAMES
              1      18        3.17       500      610      700      900      950      970     1000      129      960     1100   
                                          VAR    BASINP    GEOM    SYMINP    ZMAT    AOBASIS   BASIS     P2S    ABASIS      S 
                                         1400     1410     1200     1210     1080     1600     1650     1700   
                                           T        V       H0       H01     AOSYM     SMH    MOLCAS    OPER   

 PROGRAMS   *        TOTAL       INT
 CPU TIMES  *         0.94      0.90
 REAL TIME  *         1.35 SEC
 DISK USED  *       306.48 MB      
 GA USED    *         0.00 MB       (max)       0.00 MB       (current)
 **********************************************************************************************************************************

1PROGRAM * RHF-SCF (OPEN SHELL)       Authors: W. Meyer, H.-J. Werner


 NUMBER OF ELECTRONS:      21+   20-    SPACE SYMMETRY=1    SPIN SYMMETRY: Doublet 
 CONVERGENCE THRESHOLDS:    1.00E-10 (Density)    1.00E-11 (Energy)
 MAX. NUMBER OF ITERATIONS:      200
 INTERPOLATION TYPE:            DIIS
 INTERPOLATION STEPS:              2 (START)      1 (STEP)
 LEVEL SHIFTS:                 -0.30 (CLOSED)  0.00 (OPEN) 



 Orbital guess generated from atomic densities. Full valence occupancy:   32

 Molecular orbital dump at record        2100.2

 ITERATION    DDIFF          GRAD             ENERGY        2-EL.EN.            DIPOLE MOMENTS         DIIS
    1      0.000D+00      0.000D+00      -267.17824106    555.804929    0.56903    0.04911   -0.74966    0
    2      0.000D+00      0.617D-02      -267.24891999    555.726600    0.41383   -0.13140   -0.59945    1
    3      0.927D-02      0.214D-02      -267.26109582    555.644444    0.39365   -0.05952   -0.62693    2
    4      0.336D-02      0.912D-03      -267.26470379    555.796729    0.37918   -0.09968   -0.64340    3
    5      0.186D-02      0.363D-03      -267.26527272    555.768112    0.38178   -0.09321   -0.63642    4
    6      0.792D-03      0.110D-03      -267.26534908    555.754350    0.38005   -0.09301   -0.63917    5
    7      0.277D-03      0.511D-04      -267.26536918    555.751349    0.37934   -0.09276   -0.63866    6
    8      0.144D-03      0.272D-04      -267.26537523    555.749401    0.37962   -0.09287   -0.63888    7
    9      0.923D-04      0.115D-04      -267.26537614    555.749716    0.37980   -0.09283   -0.63863    8
   10      0.365D-04      0.501D-05      -267.26537630    555.750327    0.38006   -0.09284   -0.63870    9
   11      0.146D-04      0.196D-05      -267.26537632    555.750169    0.38011   -0.09284   -0.63870    9
   12      0.651D-05      0.670D-06      -267.26537633    555.750303    0.38013   -0.09284   -0.63870    9
   13      0.227D-05      0.226D-06      -267.26537633    555.750219    0.38013   -0.09284   -0.63870    9
   14      0.632D-06      0.757D-07      -267.26537633    555.750228    0.38013   -0.09284   -0.63870    9
   15      0.193D-06      0.300D-07      -267.26537633    555.750224    0.38013   -0.09284   -0.63870    9
   16      0.824D-07      0.145D-07      -267.26537633    555.750225    0.38014   -0.09284   -0.63870    9
   17      0.373D-07      0.749D-08      -267.26537633    555.750225    0.38014   -0.09284   -0.63870    9
   18      0.222D-07      0.341D-08      -267.26537633    555.750225    0.38014   -0.09284   -0.63870    9
   19      0.114D-07      0.133D-08      -267.26537633    555.750225    0.38014   -0.09284   -0.63870    9
   20      0.444D-08      0.566D-09      -267.26537633    555.750225    0.38014   -0.09284   -0.63870    9
   21      0.165D-08      0.286D-09      -267.26537633    555.750225    0.38014   -0.09284   -0.63870    9
   22      0.752D-09      0.161D-09      -267.26537633    555.750225    0.38014   -0.09284   -0.63870    9
   23      0.445D-09      0.794D-10      -267.26537633    555.750225    0.38014   -0.09284   -0.63870    9
   24      0.263D-09      0.316D-10      -267.26537633    555.750225    0.38014   -0.09284   -0.63870    9
   25      0.931D-10      0.129D-10      -267.26537633    555.750225    0.38014   -0.09284   -0.63870    0

 Final alpha occupancy:  21
 Final beta  occupancy:  20

 !RHF STATE 1.1 Energy               -267.265376327978
 Nuclear energy                       183.21559492
 One-electron energy                 -728.35608393
 Two-electron energy                  277.87511268
 Virial quotient                       -1.00155773
 !RHF STATE 1.1 Dipole moment           0.38013560    -0.09283765    -0.63869663
 Dipole moment /Debye                   0.96614503    -0.23595432    -1.62329859

 Orbital energies:

         1.1          2.1          3.1          4.1          5.1          6.1          7.1          8.1          9.1         10.1
    -20.630501   -20.628812   -11.279329   -11.237825   -11.232214    -1.470118    -1.240703    -1.023194    -0.945353    -0.768555

        11.1         12.1         13.1         14.1         15.1         16.1         17.1         18.1         19.1         20.1
     -0.704541    -0.643024    -0.626730    -0.588725    -0.545072    -0.543384    -0.538930    -0.516933    -0.493034    -0.469779

        21.1         22.1         23.1
     -0.352346     0.181270     0.183539


 **********************************************************************************************************************************
 DATASETS  * FILE   NREC   LENGTH (MB)   RECORD NAMES
              1      18        3.17       500      610      700      900      950      970     1000      129      960     1100   
                                          VAR    BASINP    GEOM    SYMINP    ZMAT    AOBASIS   BASIS     P2S    ABASIS      S 
                                         1400     1410     1200     1210     1080     1600     1650     1700   
                                           T        V       H0       H01     AOSYM     SMH    MOLCAS    OPER   

              2       3        0.77       700     1000     2100   
                                         GEOM     BASIS     RHF  

 PROGRAMS   *        TOTAL       RHF       INT
 CPU TIMES  *         2.04      1.09      0.90
 REAL TIME  *         2.60 SEC
 DISK USED  *       323.05 MB      
 SF USED    *         0.04 MB      
 GA USED    *         0.00 MB       (max)       0.00 MB       (current)
 **********************************************************************************************************************************


1PROGRAM * CCSD (Unrestricted open-shell coupled cluster)     Authors: C. Hampel, H.-J. Werner, 1991, M. Deegan, P.J. Knowles, 1992


 Convergence thresholds:  THRVAR = 1.00D-08  THRDEN = 1.00D-10

 CCSD(T)     terms to be evaluated (factor= 1.000)


 Number of core orbitals:           5 (   5 )
 Number of closed-shell orbitals:  15 (  15 )
 Number of active  orbitals:        1 (   1 )
 Number of external orbitals:      84 (  84 )

 Memory could be reduced to 24.91 Mwords without degradation in triples

 Number of N-1 electron functions:              31
 Number of N-2 electron functions:             465
 Number of singly external CSFs:              2635
 Number of doubly external CSFs:           2537250
 Total number of CSFs:                     2539885

 Molecular orbitals read from record     2100.2  Type=RHF/CANONICAL (state 1.1)

 Integral transformation finished. Total CPU:   1.23 sec, npass=  1  Memory used:  12.63 MW

 Starting RMP2 calculation

 ITER.      SQ.NORM     CORR.ENERGY   TOTAL ENERGY   ENERGY CHANGE        DEN1      VAR(S)    VAR(P)  DIIS     TIME
   1      1.24303898    -0.78638390  -268.05176023    -0.78638390    -0.00305004  0.20D-04  0.11D-02  1  1     1.67
   2      1.24568077    -0.78967318  -268.05504950    -0.00328927    -0.00000475  0.54D-06  0.19D-05  2  2     2.04
   3      1.24574636    -0.78971526  -268.05509159    -0.00004209    -0.00000003  0.16D-07  0.68D-08  3  3     2.44
   4      1.24574732    -0.78971526  -268.05509159    -0.00000000    -0.00000000  0.27D-09  0.38D-10  4  4     2.86
   5      1.24574740    -0.78971530  -268.05509163    -0.00000003    -0.00000000  0.25D-11  0.65D-12  5  5     3.32
   6      1.24574742    -0.78971530  -268.05509163    -0.00000001    -0.00000000  0.28D-13  0.87D-14  6  6     3.80
   7      1.24574742    -0.78971530  -268.05509163     0.00000000    -0.00000000  0.47D-15  0.12D-15  6  1     4.30
   8      1.24574742    -0.78971530  -268.05509163     0.00000000    -0.00000000  0.60D-17  0.13D-17  6  2     4.80

 Norm of t1 vector:      0.03893759      S-energy:    -0.00227187      T1 diagnostic:  0.00055059
 Norm of t2 vector:      0.49419761      P-energy:    -0.78744344
                                         Alpha-Beta:  -0.59342330
                                         Alpha-Alpha: -0.10094063
                                         Beta-Beta:   -0.09307951

 Spin contamination <S**2-Sz**2-Sz>     0.00104064
  Reference energy                   -267.265376327978
  RHF-RMP2 correlation energy          -0.789715303824
 !RHF-RMP2 energy                    -268.055091631802

 Starting UCCSD calculation

 ITER.      SQ.NORM     CORR.ENERGY   TOTAL ENERGY   ENERGY CHANGE        DEN1      VAR(S)    VAR(P)  DIIS     TIME
   1      1.26281491    -0.80905545  -268.07443177    -0.80905545    -0.02515807  0.38D-02  0.59D-02  1  1    12.41
   2      1.29159479    -0.83646694  -268.10184326    -0.02741149    -0.00201170  0.22D-03  0.66D-03  2  2    18.92
   3      1.30154060    -0.84096623  -268.10634256    -0.00449929    -0.00032482  0.19D-03  0.56D-04  3  3    24.31
   4      1.30645734    -0.84244408  -268.10782041    -0.00147786    -0.00007214  0.43D-04  0.14D-04  4  4    29.75
   5      1.30918984    -0.84283254  -268.10820887    -0.00038846    -0.00002368  0.19D-04  0.32D-05  5  5    35.25
   6      1.31113035    -0.84303715  -268.10841348    -0.00020461    -0.00000646  0.42D-05  0.12D-05  6  6    40.76
   7      1.31207975    -0.84309594  -268.10847227    -0.00005879    -0.00000208  0.14D-05  0.37D-06  6  2    46.26
   8      1.31252119    -0.84313861  -268.10851494    -0.00004267    -0.00000065  0.45D-06  0.11D-06  6  1    51.71
   9      1.31270639    -0.84314320  -268.10851953    -0.00000459    -0.00000022  0.15D-06  0.35D-07  6  4    57.15
  10      1.31276960    -0.84314613  -268.10852246    -0.00000293    -0.00000005  0.35D-07  0.95D-08  6  3    62.63
  11      1.31279908    -0.84314487  -268.10852120     0.00000126    -0.00000002  0.13D-07  0.28D-08  6  5    68.08
  12      1.31280946    -0.84314461  -268.10852093     0.00000026    -0.00000000  0.26D-08  0.95D-09  6  6    73.58
  13      1.31280831    -0.84314369  -268.10852002     0.00000092    -0.00000000  0.96D-09  0.29D-09  6  2    79.10
  14      1.31280310    -0.84314285  -268.10851917     0.00000084    -0.00000000  0.21D-09  0.68D-10  6  1    84.58
  15      1.31279902    -0.84314226  -268.10851859     0.00000059    -0.00000000  0.78D-10  0.19D-10  6  4    90.04
  16      1.31279584    -0.84314188  -268.10851820     0.00000038    -0.00000000  0.28D-10  0.63D-11  6  3    95.50
  17      1.31279364    -0.84314164  -268.10851797     0.00000024    -0.00000000  0.10D-10  0.24D-11  6  5   100.98
  18      1.31279273    -0.84314158  -268.10851791     0.00000006    -0.00000000  0.41D-11  0.87D-12  6  6   107.78
  19      1.31279212    -0.84314154  -268.10851787     0.00000003    -0.00000000  0.16D-11  0.37D-12  6  2   113.30
  20      1.31279180    -0.84314153  -268.10851786     0.00000001    -0.00000000  0.60D-12  0.13D-12  6  1   118.79
  21      1.31279164    -0.84314152  -268.10851785     0.00000001    -0.00000000  0.28D-12  0.58D-13  6  4   124.27
  22      1.31279152    -0.84314151  -268.10851784     0.00000001    -0.00000000  0.74D-13  0.21D-13  6  3   129.78
  23      1.31279146    -0.84314151  -268.10851784     0.00000000    -0.00000000  0.21D-13  0.63D-14  6  5   135.31
  24      1.31279145    -0.84314151  -268.10851784    -0.00000000    -0.00000000  0.68D-14  0.23D-14  6  6   141.37
  25      1.31279146    -0.84314151  -268.10851784    -0.00000000    -0.00000000  0.21D-14  0.52D-15  6  2   149.06
  26      1.31279146    -0.84314151  -268.10851784    -0.00000000    -0.00000000  0.77D-15  0.15D-15  6  1   156.63
  27      1.31279147    -0.84314151  -268.10851784    -0.00000000    -0.00000000  0.20D-15  0.63D-16  6  3   162.11
  28      1.31279148    -0.84314151  -268.10851784    -0.00000000    -0.00000000  0.30D-16  0.11D-16  6  4   167.62
  29      1.31279148    -0.84314151  -268.10851784    -0.00000000    -0.00000000  0.71D-17  0.29D-17  6  5   173.08
  30      1.31279148    -0.84314151  -268.10851784    -0.00000000    -0.00000000  0.15D-17  0.54D-18  6  6   178.53
  31      1.31279148    -0.84314151  -268.10851784    -0.00000000    -0.00000000  0.35D-18  0.10D-18  6  2   184.06

 Norm of t1 vector:      0.13875015      S-energy:    -0.00282171      T1 diagnostic:  0.01617322
                                                                       D1 diagnostic:  0.06284664
 Norm of t2 vector:      0.54179321      P-energy:    -0.84031980
                                         Alpha-Beta:  -0.66487677
                                         Alpha-Alpha: -0.09147258
                                         Beta-Beta:   -0.08397045

 Spin contamination <S**2-Sz**2-Sz>     0.00217231

 Memory could be reduced to 28.85 Mwords without degradation in triples
 

 RESULTS
 =======

  Reference energy                   -267.265376327978
  UCCSD singles energy                 -0.002821714564
  UCCSD pair energy                    -0.840319799089
  UCCSD correlation energy             -0.843141513652
  Triples (T) contribution             -0.024977067008
  Total correlation energy             -0.868118580660
 
  RHF-UCCSD energy                   -268.108517841630
  RHF-UCCSD[T] energy                -268.134831188904
  RHF-UCCSD-T energy                 -268.133073304799
 !RHF-UCCSD(T) energy                -268.133494908638

 Program statistics:

 Available memory in ccsd:               999997692
 Min. memory needed in ccsd:               7337057
 Max. memory used in ccsd:                10523002
 Max. memory used in cckext:              10867977 (31 integral passes)
 Max. memory used in cckint:              12633073 ( 1 integral passes)



 **********************************************************************************************************************************
 DATASETS  * FILE   NREC   LENGTH (MB)   RECORD NAMES
              1      18        3.17       500      610      700      900      950      970     1000      129      960     1100   
                                          VAR    BASINP    GEOM    SYMINP    ZMAT    AOBASIS   BASIS     P2S    ABASIS      S 
                                         1400     1410     1200     1210     1080     1600     1650     1700   
                                           T        V       H0       H01     AOSYM     SMH    MOLCAS    OPER   

              2       3        0.77       700     1000     2100   
                                         GEOM     BASIS     RHF  

 PROGRAMS   *        TOTAL  UCCSD(T)       RHF       INT
 CPU TIMES  *       232.15    230.12      1.09      0.90
 REAL TIME  *       245.61 SEC
 DISK USED  *         1.29 GB      
 SF USED    *       553.73 MB      
 GA USED    *         0.00 MB       (max)       0.00 MB       (current)
 **********************************************************************************************************************************

        UCCSD(T)        RHF-SCF 
   -268.13349491   -267.26537633
 **********************************************************************************************************************************
 Variable memory released
