
    -----------------------------------------------------------------------
          Psi4: An Open-Source Ab Initio Electronic Structure Package
                               Psi4 1.4a2.dev478 

                         Git: Rev {master} f722895 dirty


    R. M. Parrish, L. A. Burns, D. G. A. Smith, A. C. Simmonett,
    A. E. DePrince III, E. G. Hohenstein, U. Bozkaya, A. Yu. Sokolov,
    R. Di Remigio, R. M. Richard, J. F. Gonthier, A. M. James,
    H. R. McAlexander, A. Kumar, M. Saitow, X. Wang, B. P. Pritchard,
    P. Verma, H. F. Schaefer III, K. Patkowski, R. A. King, E. F. Valeev,
    F. A. Evangelista, J. M. Turney, T. D. Crawford, and C. D. Sherrill,
    J. Chem. Theory Comput. 13(7) pp 3185--3197 (2017).
    (doi: 10.1021/acs.jctc.7b00174)


                         Additional Contributions by
    P. Kraus, H. Kruse, M. H. Lechner, M. C. Schieber, R. A. Shaw,
    A. Alenaizan, R. Galvelis, Z. L. Glick, S. Lehtola, and J. P. Misiewicz

    -----------------------------------------------------------------------


    Psi4 started on: Friday, 05 June 2020 11:40AM

    Process ID: 29259
    Host:       n032
    PSIDATADIR: /opt/psi/4/master/share/psi4
    Memory:     500.0 MiB
    Threads:    4
    
  ==> Input File <==

--------------------------------------------------------------------------
set memory 40Gb

molecule {
    C   -1.169969463277   -0.774075714550   -0.000125580240
    H   -1.617202611977   -1.211544387650   -0.890367767540
    H   -1.617274396477   -1.211731322050    0.889988080060
    C   -1.170087777377    0.774434462887    0.000044788102
    H   -1.617753465733    1.210634372944    0.890255756237
    H   -1.617702249814    1.210821462742   -0.890099394464
    C    0.356504942543    0.919975272750    0.000100296144
    H    0.840653483725    1.891588284294    0.000208928179
    O    0.760964393321    0.000110195039   -1.017879413891
    C    0.357121363197   -0.920221193366   -0.000075751948
    H    0.841921342072   -1.891509302048   -0.000150360436
    O    0.760893705080   -0.000085150726    1.017931994510
}

set {
    e_convergence 10
    d_convergence 10
    freeze_core True
    basis_guess True
    cc_type conv
    maxiter 300
}

E = energy('mp2/heavy-aug-cc-pV(Q+d)Z')
psi4.print_out("\n========================OPTAVC-XTPL==========================\n\n")
psi4.print_out("MP2/QZ correlation energy {}\n".format(variable("MP2 CORRELATION ENERGY")))
psi4.print_out("SCF/QZ reference energy {}\n".format(variable("CURRENT REFERENCE ENERGY")))
psi4.print_out("\n\n=============================================================\n")

E = energy('mp2/heavy-aug-cc-pV(T+d)Z')
psi4.print_out("\n========================OPTAVC-XTPL==========================\n\n")
psi4.print_out("MP2/TZ correlation energy {}".format(variable("MP2 CORRELATION ENERGY")))
psi4.print_out("\n\n=============================================================\n")
--------------------------------------------------------------------------

Scratch directory: /tmp/

Scratch directory: /tmp/
    SCF Algorithm Type (re)set to DF.

*** tstart() called on n032
*** at Fri Jun  5 11:40:06 2020


  //>>>>>>>>>>>>>>>>>>>>>>>>>>>>>>>>>>>//
  //      Guess SCF, pcseg-0 Basis     //
  //<<<<<<<<<<<<<<<<<<<<<<<<<<<<<<<<<<<//

   => Loading Basis Set <=

    Name: PCSEG-0
    Role: ORBITAL
    Keyword: BASIS
    atoms 1, 4, 7, 10     entry C          line    71 file /opt/psi/4/master/share/psi4/basis/pcseg-0.gbs 
    atoms 2-3, 5-6, 8, 11 entry H          line    13 file /opt/psi/4/master/share/psi4/basis/pcseg-0.gbs 
    atoms 9, 12           entry O          line   103 file /opt/psi/4/master/share/psi4/basis/pcseg-0.gbs 


         ---------------------------------------------------------
                           SCF Castup computation                  
         ---------------------------------------------------------
                                   SCF
               by Justin Turney, Rob Parrish, Andy Simmonett
                          and Daniel G. A. Smith
                              RHF Reference
                        4 Threads,    500 MiB Core
         ---------------------------------------------------------

  ==> Geometry <==

    Molecular point group: c1
    Full point group: C1

    Geometry (in Angstrom), charge = 0, multiplicity = 1:

       Center              X                  Y                   Z               Mass       
    ------------   -----------------  -----------------  -----------------  -----------------
         C           -1.169969463277    -0.774075714550    -0.000125580240    12.000000000000
         H           -1.617202611977    -1.211544387650    -0.890367767540     1.007825032230
         H           -1.617274396477    -1.211731322050     0.889988080060     1.007825032230
         C           -1.170087777377     0.774434462887     0.000044788102    12.000000000000
         H           -1.617753465733     1.210634372944     0.890255756237     1.007825032230
         H           -1.617702249814     1.210821462742    -0.890099394464     1.007825032230
         C            0.356504942543     0.919975272750     0.000100296144    12.000000000000
         H            0.840653483725     1.891588284294     0.000208928179     1.007825032230
         O            0.760964393321     0.000110195039    -1.017879413891    15.994914619570
         C            0.357121363197    -0.920221193366    -0.000075751948    12.000000000000
         H            0.841921342072    -1.891509302048    -0.000150360436     1.007825032230
         O            0.760893705080    -0.000085150726     1.017931994510    15.994914619570

  Running in c1 symmetry.

  Rotational constants: A =      0.20028  B =      0.16407  C =      0.14757 [cm^-1]
  Rotational constants: A =   6004.18905  B =   4918.67499  C =   4423.92339 [MHz]
  Nuclear repulsion =  258.059933532231526

  Charge       = 0
  Multiplicity = 1
  Electrons    = 46
  Nalpha       = 23
  Nbeta        = 23

  ==> Algorithm <==

  SCF Algorithm Type is DF.
  DIIS enabled.
  MOM disabled.
  Fractional occupation disabled.
  Guess Type is SAD.
  Energy threshold   = 1.00e-10
  Density threshold  = 1.00e-10
  Integral threshold = 0.00e+00

  ==> Primary Basis <==

  Basis Set: PCSEG-0
    Blend: PCSEG-0
    Number of shells: 42
    Number of basis function: 66
    Number of Cartesian functions: 66
    Spherical Harmonics?: true
    Max angular momentum: 1

   => Loading Basis Set <=

    Name: (PCSEG-0 AUX)
    Role: JKFIT
    Keyword: DF_BASIS_SCF
    atoms 1, 4, 7, 10     entry C          line   198 file /opt/psi/4/master/share/psi4/basis/def2-universal-jkfit.gbs 
    atoms 2-3, 5-6, 8, 11 entry H          line    18 file /opt/psi/4/master/share/psi4/basis/def2-universal-jkfit.gbs 
    atoms 9, 12           entry O          line   318 file /opt/psi/4/master/share/psi4/basis/def2-universal-jkfit.gbs 

  ==> Integral Setup <==

  ==> DiskDFJK: Density-Fitted J/K Matrices <==

    J tasked:                  Yes
    K tasked:                  Yes
    wK tasked:                  No
    OpenMP threads:              4
    Integrals threads:           4
    Memory [MiB]:              375
    Algorithm:                Core
    Integral Cache:           NONE
    Schwarz Cutoff:          1E-12
    Fitting Condition:       1E-10

   => Auxiliary Basis Set <=

  Basis Set: (PCSEG-0 AUX)
    Blend: DEF2-UNIVERSAL-JKFIT
    Number of shells: 186
    Number of basis function: 562
    Number of Cartesian functions: 662
    Spherical Harmonics?: true
    Max angular momentum: 4

  Minimum eigenvalue in the overlap matrix is 1.2764355891E-03.
  Reciprocal condition number of the overlap matrix is 2.1013138416E-04.
    Using symmetric orthogonalization.

  ==> Pre-Iterations <==

  SCF Guess: Superposition of Atomic Densities via on-the-fly atomic UHF (no occupation information).

   -------------------------
    Irrep   Nso     Nmo    
   -------------------------
     A         66      66 
   -------------------------
    Total      66      66
   -------------------------

  ==> Iterations <==

                           Total Energy        Delta E     RMS |[F,P]|

   @DF-RHF iter SAD:  -303.78293172592220   -3.03783e+02   0.00000e+00 
   @DF-RHF iter   1:  -303.56522703352613    2.17705e-01   7.20889e-03 DIIS
   @DF-RHF iter   2:  -303.66411702397124   -9.88900e-02   3.86617e-03 DIIS
   @DF-RHF iter   3:  -303.68845917155221   -2.43421e-02   6.09810e-04 DIIS
   @DF-RHF iter   4:  -303.68959904995432   -1.13988e-03   1.89632e-04 DIIS
   @DF-RHF iter   5:  -303.68968743202527   -8.83821e-05   4.01069e-05 DIIS
   @DF-RHF iter   6:  -303.68969454890936   -7.11688e-06   8.08892e-06 DIIS
   @DF-RHF iter   7:  -303.68969492042868   -3.71519e-07   1.66874e-06 DIIS
   @DF-RHF iter   8:  -303.68969493349584   -1.30672e-08   5.23061e-07 DIIS
   @DF-RHF iter   9:  -303.68969493482604   -1.33019e-09   1.00059e-07 DIIS
   @DF-RHF iter  10:  -303.68969493488919   -6.31530e-11   1.69220e-08 DIIS
   @DF-RHF iter  11:  -303.68969493489129   -2.10321e-12   2.52794e-09 DIIS
   @DF-RHF iter  12:  -303.68969493489163   -3.41061e-13   5.06629e-10 DIIS
   @DF-RHF iter  13:  -303.68969493489112    5.11591e-13   1.56003e-10 DIIS
   @DF-RHF iter  14:  -303.68969493489152   -3.97904e-13   3.34605e-11 DIIS
  Energy and wave function converged.


  ==> Post-Iterations <==

    Orbital Energies [Eh]
    ---------------------

    Doubly Occupied:                                                      

       1A    -20.583855     2A    -20.583788     3A    -11.368412  
       4A    -11.368384     5A    -11.254722     6A    -11.254314  
       7A     -1.548724     8A     -1.317316     9A     -1.091166  
      10A     -1.011032    11A     -0.822311    12A     -0.787990  
      13A     -0.770562    14A     -0.684689    15A     -0.664461  
      16A     -0.661758    17A     -0.555072    18A     -0.534273  
      19A     -0.528203    20A     -0.525356    21A     -0.518423  
      22A     -0.467604    23A     -0.441347  

    Virtual:                                                              

      24A      0.203701    25A      0.232854    26A      0.236731  
      27A      0.242100    28A      0.254705    29A      0.267691  
      30A      0.316063    31A      0.352037    32A      0.354357  
      33A      0.388119    34A      0.408803    35A      0.474127  
      36A      0.575658    37A      0.796061    38A      0.799772  
      39A      0.821359    40A      0.924799    41A      0.933997  
      42A      0.944517    43A      0.951731    44A      1.004549  
      45A      1.005397    46A      1.033564    47A      1.061487  
      48A      1.071774    49A      1.136309    50A      1.149861  
      51A      1.171649    52A      1.172975    53A      1.210630  
      54A      1.239250    55A      1.421898    56A      1.454419  
      57A      1.484779    58A      1.525896    59A      1.692473  
      60A      1.710099    61A      1.929915    62A      1.952661  
      63A      2.144809    64A      2.303196    65A      2.379057  
      66A      2.449438  

    Final Occupation by Irrep:
              A 
    DOCC [    23 ]

  @DF-RHF Final Energy:  -303.68969493489152

   => Energetics <=

    Nuclear Repulsion Energy =            258.0599335322315255
    One-Electron Energy =                -924.8117332906060710
    Two-Electron Energy =                 363.0621048234830255
    Total Energy =                       -303.6896949348915200

Computation Completed

  //>>>>>>>>>>>>>>>>>>>>>>>>>>>>>>>>>>>//
  //                SCF                //
  //<<<<<<<<<<<<<<<<<<<<<<<<<<<<<<<<<<<//

   => Loading Basis Set <=

    Name: HEAVY-AUG-CC-PV(Q+D)Z
    Role: ORBITAL
    Keyword: BASIS
    atoms 1, 4, 7, 10     entry C          line   333 file /opt/psi/4/master/share/psi4/basis/heavy-aug-cc-pv_qpd_z.gbs 
    atoms 2-3, 5-6, 8, 11 entry H          line    86 file /opt/psi/4/master/share/psi4/basis/heavy-aug-cc-pv_qpd_z.gbs 
    atoms 9, 12           entry O          line   453 file /opt/psi/4/master/share/psi4/basis/heavy-aug-cc-pv_qpd_z.gbs 


         ---------------------------------------------------------
                                   SCF
               by Justin Turney, Rob Parrish, Andy Simmonett
                          and Daniel G. A. Smith
                              RHF Reference
                        4 Threads,    500 MiB Core
         ---------------------------------------------------------

  ==> Geometry <==

    Molecular point group: c1
    Full point group: C1

    Geometry (in Angstrom), charge = 0, multiplicity = 1:

       Center              X                  Y                   Z               Mass       
    ------------   -----------------  -----------------  -----------------  -----------------
         C           -1.169969463277    -0.774075714550    -0.000125580240    12.000000000000
         H           -1.617202611977    -1.211544387650    -0.890367767540     1.007825032230
         H           -1.617274396477    -1.211731322050     0.889988080060     1.007825032230
         C           -1.170087777377     0.774434462887     0.000044788102    12.000000000000
         H           -1.617753465733     1.210634372944     0.890255756237     1.007825032230
         H           -1.617702249814     1.210821462742    -0.890099394464     1.007825032230
         C            0.356504942543     0.919975272750     0.000100296144    12.000000000000
         H            0.840653483725     1.891588284294     0.000208928179     1.007825032230
         O            0.760964393321     0.000110195039    -1.017879413891    15.994914619570
         C            0.357121363197    -0.920221193366    -0.000075751948    12.000000000000
         H            0.841921342072    -1.891509302048    -0.000150360436     1.007825032230
         O            0.760893705080    -0.000085150726     1.017931994510    15.994914619570

  Running in c1 symmetry.

  Rotational constants: A =      0.20028  B =      0.16407  C =      0.14757 [cm^-1]
  Rotational constants: A =   6004.18905  B =   4918.67499  C =   4423.92339 [MHz]
  Nuclear repulsion =  258.059933532231526

  Charge       = 0
  Multiplicity = 1
  Electrons    = 46
  Nalpha       = 23
  Nbeta        = 23

  ==> Algorithm <==

  SCF Algorithm Type is DF.
  DIIS enabled.
  MOM disabled.
  Fractional occupation disabled.
  Guess Type is SAD.
  Energy threshold   = 1.00e-10
  Density threshold  = 1.00e-10
  Integral threshold = 0.00e+00

  ==> Primary Basis <==

  Basis Set: HEAVY-AUG-CC-PV(Q+D)Z
    Blend: HEAVY-AUG-CC-PV(Q+D)Z
    Number of shells: 180
    Number of basis function: 660
    Number of Cartesian functions: 840
    Spherical Harmonics?: true
    Max angular momentum: 4

   => Loading Basis Set <=

    Name: (HEAVY-AUG-CC-PV(Q+D)Z AUX)
    Role: JKFIT
    Keyword: DF_BASIS_SCF
    atoms 1, 4, 7, 10     entry C          line   214 file /opt/psi/4/master/share/psi4/basis/heavy-aug-cc-pvqz-jkfit.gbs 
    atoms 2-3, 5-6, 8, 11 entry H          line   116 file /opt/psi/4/master/share/psi4/basis/heavy-aug-cc-pvqz-jkfit.gbs 
    atoms 9, 12           entry O          line   354 file /opt/psi/4/master/share/psi4/basis/heavy-aug-cc-pvqz-jkfit.gbs 


  Computing basis projection from PCSEG-0 to HEAVY-AUG-CC-PV(Q+D)Z

  ==> Integral Setup <==

  ==> DiskDFJK: Density-Fitted J/K Matrices <==

    J tasked:                  Yes
    K tasked:                  Yes
    wK tasked:                  No
    OpenMP threads:              4
    Integrals threads:           4
    Memory [MiB]:              375
    Algorithm:                Disk
    Integral Cache:           NONE
    Schwarz Cutoff:          1E-12
    Fitting Condition:       1E-10

   => Auxiliary Basis Set <=

  Basis Set: (HEAVY-AUG-CC-PV(Q+D)Z AUX)
    Blend: HEAVY-AUG-CC-PVQZ-JKFIT
    Number of shells: 282
    Number of basis function: 1158
    Number of Cartesian functions: 1584
    Spherical Harmonics?: true
    Max angular momentum: 5

  Minimum eigenvalue in the overlap matrix is 1.0732568164E-06.
  Reciprocal condition number of the overlap matrix is 6.8708972448E-08.
    Using symmetric orthogonalization.

  ==> Pre-Iterations <==

  SCF Guess: Orbitals guess was supplied from a previous computation.

   -------------------------
    Irrep   Nso     Nmo    
   -------------------------
     A        660     660 
   -------------------------
    Total     660     660
   -------------------------

  ==> Iterations <==

                           Total Energy        Delta E     RMS |[F,P]|

   @DF-RHF iter   0:  -304.22025500679780   -3.04220e+02   4.49020e-03 
   @DF-RHF iter   1:  -304.73499164095961   -5.14737e-01   3.39655e-04 DIIS
   @DF-RHF iter   2:  -304.75114999270392   -1.61584e-02   1.55023e-04 DIIS
   @DF-RHF iter   3:  -304.75507043503001   -3.92044e-03   2.79062e-05 DIIS
   @DF-RHF iter   4:  -304.75534384337044   -2.73408e-04   7.95855e-06 DIIS
   @DF-RHF iter   5:  -304.75536506296703   -2.12196e-05   3.36897e-06 DIIS
   @DF-RHF iter   6:  -304.75536832240948   -3.25944e-06   8.32131e-07 DIIS
   @DF-RHF iter   7:  -304.75536860576233   -2.83353e-07   1.75382e-07 DIIS
   @DF-RHF iter   8:  -304.75536861959137   -1.38290e-08   4.58379e-08 DIIS
   @DF-RHF iter   9:  -304.75536862062938   -1.03802e-09   1.49168e-08 DIIS
   @DF-RHF iter  10:  -304.75536862072045   -9.10632e-11   3.66226e-09 DIIS
   @DF-RHF iter  11:  -304.75536862072721   -6.76437e-12   9.20826e-10 DIIS
   @DF-RHF iter  12:  -304.75536862072784   -6.25278e-13   2.66095e-10 DIIS
   @DF-RHF iter  13:  -304.75536862072795   -1.13687e-13   4.36844e-11 DIIS
  Energy and wave function converged.


  ==> Post-Iterations <==

    Orbital Energies [Eh]
    ---------------------

    Doubly Occupied:                                                      

       1A    -20.564303     2A    -20.564264     3A    -11.346895  
       4A    -11.346863     5A    -11.235123     6A    -11.234547  
       7A     -1.500696     8A     -1.296010     9A     -1.066588  
      10A     -0.989839    11A     -0.810510    12A     -0.787509  
      13A     -0.749030    14A     -0.676509    15A     -0.657274  
      16A     -0.645464    17A     -0.537646    18A     -0.525386  
      19A     -0.519205    20A     -0.511754    21A     -0.508848  
      22A     -0.460248    23A     -0.431549  

    Virtual:                                                              

      24A      0.041674    25A      0.042970    26A      0.050514  
      27A      0.062646    28A      0.063961    29A      0.079817  
      30A      0.080061    31A      0.083461    32A      0.101515  
      33A      0.110292    34A      0.111769    35A      0.112235  
      36A      0.139405    37A      0.151939    38A      0.166518  
      39A      0.171529    40A      0.178372    41A      0.178845  
      42A      0.188722    43A      0.188984    44A      0.199221  
      45A      0.207548    46A      0.226248    47A      0.227064  
      48A      0.230191    49A      0.258068    50A      0.261568  
      51A      0.270728    52A      0.271383    53A      0.272941  
      54A      0.287075    55A      0.288258    56A      0.291666  
      57A      0.301319    58A      0.316692    59A      0.319863  
      60A      0.325855    61A      0.333516    62A      0.338429  
      63A      0.356640    64A      0.358181    65A      0.370111  
      66A      0.381333    67A      0.388257    68A      0.390851  
      69A      0.391785    70A      0.392677    71A      0.399336  
      72A      0.399382    73A      0.413574    74A      0.420628  
      75A      0.421942    76A      0.440194    77A      0.452943  
      78A      0.457623    79A      0.465869    80A      0.495283  
      81A      0.517055    82A      0.518923    83A      0.523915  
      84A      0.528058    85A      0.550594    86A      0.572861  
      87A      0.575693    88A      0.586260    89A      0.590207  
      90A      0.598513    91A      0.600951    92A      0.614781  
      93A      0.629721    94A      0.642249    95A      0.656508  
      96A      0.659710    97A      0.686962    98A      0.690303  
      99A      0.697132   100A      0.704699   101A      0.716241  
     102A      0.721659   103A      0.735131   104A      0.745013  
     105A      0.759895   106A      0.766560   107A      0.790061  
     108A      0.791706   109A      0.794859   110A      0.796311  
     111A      0.828607   112A      0.832198   113A      0.833913  
     114A      0.850084   115A      0.860628   116A      0.876207  
     117A      0.885281   118A      0.898085   119A      0.920655  
     120A      0.939380   121A      0.948140   122A      0.960275  
     123A      0.960932   124A      0.987426   125A      1.002458  
     126A      1.010042   127A      1.012653   128A      1.017662  
     129A      1.034915   130A      1.035285   131A      1.047540  
     132A      1.060649   133A      1.071494   134A      1.074841  
     135A      1.097993   136A      1.114317   137A      1.129091  
     138A      1.140942   139A      1.154359   140A      1.160400  
     141A      1.160968   142A      1.166882   143A      1.167455  
     144A      1.177488   145A      1.190950   146A      1.198657  
     147A      1.209777   148A      1.222540   149A      1.231018  
     150A      1.235260   151A      1.238320   152A      1.240265  
     153A      1.246857   154A      1.276474   155A      1.278371  
     156A      1.289016   157A      1.289637   158A      1.306544  
     159A      1.315504   160A      1.329632   161A      1.371336  
     162A      1.373708   163A      1.410069   164A      1.410907  
     165A      1.436405   166A      1.442573   167A      1.459531  
     168A      1.469891   169A      1.477131   170A      1.487271  
     171A      1.490806   172A      1.510063   173A      1.525760  
     174A      1.534680   175A      1.545044   176A      1.594773  
     177A      1.595359   178A      1.620295   179A      1.622864  
     180A      1.626045   181A      1.626674   182A      1.646667  
     183A      1.684328   184A      1.686488   185A      1.701333  
     186A      1.723973   187A      1.727636   188A      1.734262  
     189A      1.754694   190A      1.777145   191A      1.779263  
     192A      1.814070   193A      1.867257   194A      1.875386  
     195A      1.887229   196A      1.898833   197A      1.909172  
     198A      1.928017   199A      1.960764   200A      1.968522  
     201A      1.999005   202A      2.000488   203A      2.017419  
     204A      2.022278   205A      2.026922   206A      2.029956  
     207A      2.034936   208A      2.039015   209A      2.045065  
     210A      2.106297   211A      2.116021   212A      2.126290  
     213A      2.142568   214A      2.145953   215A      2.173574  
     216A      2.189735   217A      2.189955   218A      2.212279  
     219A      2.255126   220A      2.261710   221A      2.270520  
     222A      2.296170   223A      2.301600   224A      2.309423  
     225A      2.339369   226A      2.342069   227A      2.362166  
     228A      2.364499   229A      2.366077   230A      2.377033  
     231A      2.390873   232A      2.400941   233A      2.407231  
     234A      2.423001   235A      2.442946   236A      2.448238  
     237A      2.460403   238A      2.487530   239A      2.492621  
     240A      2.518861   241A      2.527544   242A      2.536917  
     243A      2.547434   244A      2.561341   245A      2.590079  
     246A      2.594466   247A      2.622145   248A      2.634961  
     249A      2.635613   250A      2.648883   251A      2.666378  
     252A      2.683384   253A      2.701593   254A      2.719312  
     255A      2.734145   256A      2.735195   257A      2.753998  
     258A      2.766126   259A      2.766799   260A      2.802047  
     261A      2.807382   262A      2.807786   263A      2.835916  
     264A      2.861953   265A      2.870312   266A      2.923745  
     267A      2.941383   268A      2.945614   269A      2.970743  
     270A      2.977416   271A      2.988831   272A      2.992897  
     273A      3.010023   274A      3.033529   275A      3.043722  
     276A      3.051684   277A      3.078455   278A      3.083575  
     279A      3.084296   280A      3.106101   281A      3.111608  
     282A      3.137663   283A      3.148481   284A      3.156304  
     285A      3.175197   286A      3.189877   287A      3.229388  
     288A      3.249889   289A      3.260016   290A      3.270320  
     291A      3.291448   292A      3.297564   293A      3.322561  
     294A      3.364224   295A      3.368751   296A      3.400785  
     297A      3.403772   298A      3.406756   299A      3.434474  
     300A      3.456978   301A      3.464959   302A      3.480840  
     303A      3.503573   304A      3.523518   305A      3.537654  
     306A      3.554021   307A      3.574674   308A      3.599507  
     309A      3.614078   310A      3.619305   311A      3.641253  
     312A      3.664331   313A      3.694210   314A      3.706872  
     315A      3.716619   316A      3.748889   317A      3.754210  
     318A      3.757581   319A      3.810104   320A      3.836608  
     321A      3.846396   322A      3.846983   323A      3.877281  
     324A      3.908955   325A      3.910809   326A      3.921499  
     327A      3.951891   328A      3.965198   329A      3.984677  
     330A      4.043917   331A      4.048517   332A      4.051111  
     333A      4.063050   334A      4.086045   335A      4.101195  
     336A      4.121024   337A      4.139540   338A      4.157912  
     339A      4.172813   340A      4.203918   341A      4.206219  
     342A      4.219722   343A      4.243332   344A      4.249586  
     345A      4.276816   346A      4.296215   347A      4.317210  
     348A      4.336963   349A      4.340373   350A      4.364963  
     351A      4.408747   352A      4.435551   353A      4.446849  
     354A      4.457837   355A      4.470235   356A      4.490572  
     357A      4.500560   358A      4.513390   359A      4.525468  
     360A      4.541971   361A      4.570991   362A      4.598011  
     363A      4.637672   364A      4.662202   365A      4.676410  
     366A      4.698523   367A      4.699338   368A      4.707887  
     369A      4.719901   370A      4.747259   371A      4.758638  
     372A      4.763945   373A      4.788960   374A      4.831025  
     375A      4.835409   376A      4.835798   377A      4.848829  
     378A      4.860709   379A      4.913724   380A      4.944919  
     381A      4.988896   382A      5.007631   383A      5.011151  
     384A      5.035560   385A      5.062451   386A      5.124595  
     387A      5.171954   388A      5.175576   389A      5.186234  
     390A      5.245370   391A      5.255481   392A      5.258109  
     393A      5.285245   394A      5.295964   395A      5.311386  
     396A      5.348114   397A      5.368076   398A      5.391748  
     399A      5.424065   400A      5.503618   401A      5.525516  
     402A      5.555373   403A      5.596480   404A      5.637621  
     405A      5.660207   406A      5.661375   407A      5.677770  
     408A      5.794294   409A      5.837764   410A      5.838943  
     411A      5.844780   412A      5.909761   413A      5.976783  
     414A      6.039233   415A      6.108044   416A      6.148210  
     417A      6.191876   418A      6.220725   419A      6.234544  
     420A      6.242210   421A      6.296676   422A      6.340134  
     423A      6.344743   424A      6.348808   425A      6.371845  
     426A      6.399343   427A      6.422505   428A      6.464006  
     429A      6.490761   430A      6.497343   431A      6.514871  
     432A      6.526431   433A      6.540004   434A      6.583242  
     435A      6.586774   436A      6.619096   437A      6.642239  
     438A      6.648654   439A      6.655459   440A      6.690297  
     441A      6.702455   442A      6.705450   443A      6.717568  
     444A      6.755002   445A      6.774764   446A      6.786643  
     447A      6.815414   448A      6.821519   449A      6.856600  
     450A      6.896897   451A      6.908970   452A      6.920412  
     453A      6.923544   454A      6.924222   455A      6.947514  
     456A      6.980249   457A      6.995724   458A      7.015019  
     459A      7.040548   460A      7.095651   461A      7.107316  
     462A      7.111255   463A      7.138106   464A      7.160379  
     465A      7.180953   466A      7.195325   467A      7.207917  
     468A      7.223100   469A      7.224882   470A      7.254951  
     471A      7.280968   472A      7.312064   473A      7.360984  
     474A      7.369873   475A      7.372073   476A      7.421111  
     477A      7.440408   478A      7.442333   479A      7.477445  
     480A      7.541531   481A      7.546512   482A      7.601985  
     483A      7.605398   484A      7.618163   485A      7.641893  
     486A      7.721529   487A      7.732881   488A      7.751289  
     489A      7.757057   490A      7.785088   491A      7.818544  
     492A      7.840948   493A      7.848697   494A      7.860761  
     495A      7.924996   496A      7.951423   497A      7.954189  
     498A      7.989299   499A      7.999443   500A      8.023280  
     501A      8.026388   502A      8.049960   503A      8.094310  
     504A      8.118065   505A      8.154083   506A      8.158097  
     507A      8.198591   508A      8.207195   509A      8.328877  
     510A      8.337389   511A      8.342454   512A      8.356075  
     513A      8.389187   514A      8.421744   515A      8.426995  
     516A      8.485018   517A      8.508518   518A      8.510889  
     519A      8.530541   520A      8.556167   521A      8.568011  
     522A      8.594927   523A      8.611473   524A      8.616947  
     525A      8.656263   526A      8.697190   527A      8.712070  
     528A      8.721015   529A      8.766707   530A      8.816465  
     531A      8.831426   532A      8.840598   533A      8.843681  
     534A      8.847311   535A      8.891014   536A      8.901713  
     537A      8.929337   538A      8.942827   539A      8.958468  
     540A      9.010078   541A      9.017392   542A      9.029500  
     543A      9.038493   544A      9.048732   545A      9.067473  
     546A      9.086009   547A      9.111214   548A      9.118782  
     549A      9.173498   550A      9.180425   551A      9.191922  
     552A      9.236634   553A      9.252862   554A      9.314158  
     555A      9.344774   556A      9.353588   557A      9.357566  
     558A      9.368783   559A      9.400361   560A      9.453001  
     561A      9.503701   562A      9.515265   563A      9.528880  
     564A      9.557464   565A      9.652043   566A      9.661116  
     567A      9.727657   568A      9.761259   569A      9.773811  
     570A      9.798135   571A      9.835274   572A      9.898480  
     573A      9.925058   574A      9.932936   575A      9.962245  
     576A     10.071310   577A     10.115395   578A     10.233730  
     579A     10.243194   580A     10.257849   581A     10.293652  
     582A     10.419432   583A     10.480417   584A     10.502989  
     585A     10.516057   586A     10.589187   587A     10.627252  
     588A     10.648804   589A     10.782835   590A     10.791643  
     591A     10.822406   592A     10.826610   593A     10.969414  
     594A     11.005356   595A     11.059324   596A     11.083897  
     597A     11.097492   598A     11.107554   599A     11.146776  
     600A     11.152036   601A     11.177035   602A     11.219997  
     603A     11.235529   604A     11.258384   605A     11.351365  
     606A     11.387401   607A     11.457376   608A     11.465461  
     609A     11.512723   610A     11.513981   611A     11.526733  
     612A     11.557595   613A     11.635245   614A     11.657853  
     615A     11.744224   616A     11.829129   617A     11.848389  
     618A     11.884404   619A     11.908667   620A     11.927870  
     621A     12.220209   622A     12.278269   623A     12.317036  
     624A     12.400100   625A     12.664385   626A     12.677420  
     627A     12.821954   628A     12.908927   629A     12.949881  
     630A     13.058135   631A     13.097476   632A     13.114370  
     633A     13.196462   634A     13.236796   635A     13.267326  
     636A     13.357768   637A     13.389820   638A     13.401551  
     639A     13.426091   640A     13.532461   641A     13.535603  
     642A     13.555029   643A     13.742365   644A     13.751014  
     645A     13.819525   646A     13.820885   647A     13.867469  
     648A     13.932490   649A     14.007218   650A     14.018802  
     651A     14.164451   652A     14.172662   653A     14.730311  
     654A     14.927179   655A     27.317961   656A     27.905798  
     657A     28.049724   658A     28.607764   659A     44.849599  
     660A     45.764679  

    Final Occupation by Irrep:
              A 
    DOCC [    23 ]

  @DF-RHF Final Energy:  -304.75536862072795

   => Energetics <=

    Nuclear Repulsion Energy =            258.0599335322315255
    One-Electron Energy =                -927.6984872241139328
    Two-Electron Energy =                 364.8831850711544575
    Total Energy =                       -304.7553686207279497

Computation Completed


Properties will be evaluated at   0.000000,   0.000000,   0.000000 [a0]

Properties computed using the SCF density matrix

  Nuclear Dipole Moment: [e a0]
     X:    -4.4807      Y:    -0.0016      Z:    -0.0002

  Electronic Dipole Moment: [e a0]
     X:     3.7446      Y:     0.0015      Z:     0.0001

  Dipole Moment: [e a0]
     X:    -0.7361      Y:    -0.0001      Z:    -0.0000     Total:     0.7361

  Dipole Moment: [D]
     X:    -1.8709      Y:    -0.0004      Z:    -0.0001     Total:     1.8709


*** tstop() called on n032 at Fri Jun  5 11:41:10 2020
Module time:
	user time   =     241.52 seconds =       4.03 minutes
	system time =       7.51 seconds =       0.13 minutes
	total time  =         64 seconds =       1.07 minutes
Total time:
	user time   =     241.52 seconds =       4.03 minutes
	system time =       7.51 seconds =       0.13 minutes
	total time  =         64 seconds =       1.07 minutes

*** tstart() called on n032
*** at Fri Jun  5 11:41:10 2020


  //>>>>>>>>>>>>>>>>>>>>>>>>>>>>>>>>>>>//
  //               DFMP2               //
  //<<<<<<<<<<<<<<<<<<<<<<<<<<<<<<<<<<<//

   => Loading Basis Set <=

    Name: (HEAVY-AUG-CC-PV(Q+D)Z AUX)
    Role: RIFIT
    Keyword: DF_BASIS_MP2
    atoms 1, 4, 7, 10     entry C          line   180 file /opt/psi/4/master/share/psi4/basis/heavy-aug-cc-pvqz-ri.gbs 
    atoms 2-3, 5-6, 8, 11 entry H          line    44 file /opt/psi/4/master/share/psi4/basis/heavy-aug-cc-pvqz-ri.gbs 
    atoms 9, 12           entry O          line   328 file /opt/psi/4/master/share/psi4/basis/heavy-aug-cc-pvqz-ri.gbs 

	 --------------------------------------------------------
	                          DF-MP2                         
	      2nd-Order Density-Fitted Moller-Plesset Theory     
	              RMP2 Wavefunction,   4 Threads             
	                                                         
	        Rob Parrish, Justin Turney, Andy Simmonett,      
	           Ed Hohenstein, and C. David Sherrill          
	 --------------------------------------------------------

   => Auxiliary Basis Set <=

  Basis Set: (HEAVY-AUG-CC-PV(Q+D)Z AUX)
    Blend: HEAVY-AUG-CC-PVQZ-RI
    Number of shells: 306
    Number of basis function: 1338
    Number of Cartesian functions: 1842
    Spherical Harmonics?: true
    Max angular momentum: 5

	 --------------------------------------------------------
	                 NBF =   660, NAUX =  1338
	 --------------------------------------------------------
	   CLASS    FOCC     OCC    AOCC    AVIR     VIR    FVIR
	   PAIRS       6      23      17     637     637       0
	 --------------------------------------------------------

	-----------------------------------------------------------
	 ==================> DF-MP2 Energies <==================== 
	-----------------------------------------------------------
	 Reference Energy          =    -304.7553686207279497 [Eh]
	 Singles Energy            =      -0.0000000000000000 [Eh]
	 Same-Spin Energy          =      -0.2937660865105388 [Eh]
	 Opposite-Spin Energy      =      -0.9223760726786092 [Eh]
	 Correlation Energy        =      -1.2161421591891481 [Eh]
	 Total Energy              =    -305.9715107799170823 [Eh]
	-----------------------------------------------------------
	 ================> DF-SCS-MP2 Energies <================== 
	-----------------------------------------------------------
	 SCS Same-Spin Scale       =       0.3333333333333333 [-]
	 SCS Opposite-Spin Scale   =       1.2000000000000000 [-]
	 SCS Same-Spin Energy      =      -0.0979220288368463 [Eh]
	 SCS Opposite-Spin Energy  =      -1.1068512872143310 [Eh]
	 SCS Correlation Energy    =      -1.2047733160511773 [Eh]
	 SCS Total Energy          =    -305.9601419367791095 [Eh]
	-----------------------------------------------------------


*** tstop() called on n032 at Fri Jun  5 11:41:22 2020
Module time:
	user time   =      46.48 seconds =       0.77 minutes
	system time =       0.40 seconds =       0.01 minutes
	total time  =         12 seconds =       0.20 minutes
Total time:
	user time   =     288.00 seconds =       4.80 minutes
	system time =       7.91 seconds =       0.13 minutes
	total time  =         76 seconds =       1.27 minutes

========================OPTAVC-XTPL==========================

MP2/QZ correlation energy -1.2161421591891481
SCF/QZ reference energy -304.75536862072795


=============================================================

Scratch directory: /tmp/

Scratch directory: /tmp/
    SCF Algorithm Type (re)set to DF.

*** tstart() called on n032
*** at Fri Jun  5 11:41:22 2020


  //>>>>>>>>>>>>>>>>>>>>>>>>>>>>>>>>>>>//
  //      Guess SCF, pcseg-0 Basis     //
  //<<<<<<<<<<<<<<<<<<<<<<<<<<<<<<<<<<<//

   => Loading Basis Set <=

    Name: PCSEG-0
    Role: ORBITAL
    Keyword: BASIS
    atoms 1, 4, 7, 10     entry C          line    71 file /opt/psi/4/master/share/psi4/basis/pcseg-0.gbs 
    atoms 2-3, 5-6, 8, 11 entry H          line    13 file /opt/psi/4/master/share/psi4/basis/pcseg-0.gbs 
    atoms 9, 12           entry O          line   103 file /opt/psi/4/master/share/psi4/basis/pcseg-0.gbs 


         ---------------------------------------------------------
                           SCF Castup computation                  
         ---------------------------------------------------------
                                   SCF
               by Justin Turney, Rob Parrish, Andy Simmonett
                          and Daniel G. A. Smith
                              RHF Reference
                        4 Threads,    500 MiB Core
         ---------------------------------------------------------

  ==> Geometry <==

    Molecular point group: c1
    Full point group: C1

    Geometry (in Angstrom), charge = 0, multiplicity = 1:

       Center              X                  Y                   Z               Mass       
    ------------   -----------------  -----------------  -----------------  -----------------
         C           -1.169969463277    -0.774075714550    -0.000125580240    12.000000000000
         H           -1.617202611977    -1.211544387650    -0.890367767540     1.007825032230
         H           -1.617274396477    -1.211731322050     0.889988080060     1.007825032230
         C           -1.170087777377     0.774434462887     0.000044788102    12.000000000000
         H           -1.617753465733     1.210634372944     0.890255756237     1.007825032230
         H           -1.617702249814     1.210821462742    -0.890099394464     1.007825032230
         C            0.356504942543     0.919975272750     0.000100296144    12.000000000000
         H            0.840653483725     1.891588284294     0.000208928179     1.007825032230
         O            0.760964393321     0.000110195039    -1.017879413891    15.994914619570
         C            0.357121363197    -0.920221193366    -0.000075751948    12.000000000000
         H            0.841921342072    -1.891509302048    -0.000150360436     1.007825032230
         O            0.760893705080    -0.000085150726     1.017931994510    15.994914619570

  Running in c1 symmetry.

  Rotational constants: A =      0.20028  B =      0.16407  C =      0.14757 [cm^-1]
  Rotational constants: A =   6004.18905  B =   4918.67499  C =   4423.92339 [MHz]
  Nuclear repulsion =  258.059933532231526

  Charge       = 0
  Multiplicity = 1
  Electrons    = 46
  Nalpha       = 23
  Nbeta        = 23

  ==> Algorithm <==

  SCF Algorithm Type is DF.
  DIIS enabled.
  MOM disabled.
  Fractional occupation disabled.
  Guess Type is SAD.
  Energy threshold   = 1.00e-10
  Density threshold  = 1.00e-10
  Integral threshold = 0.00e+00

  ==> Primary Basis <==

  Basis Set: PCSEG-0
    Blend: PCSEG-0
    Number of shells: 42
    Number of basis function: 66
    Number of Cartesian functions: 66
    Spherical Harmonics?: true
    Max angular momentum: 1

   => Loading Basis Set <=

    Name: (PCSEG-0 AUX)
    Role: JKFIT
    Keyword: DF_BASIS_SCF
    atoms 1, 4, 7, 10     entry C          line   198 file /opt/psi/4/master/share/psi4/basis/def2-universal-jkfit.gbs 
    atoms 2-3, 5-6, 8, 11 entry H          line    18 file /opt/psi/4/master/share/psi4/basis/def2-universal-jkfit.gbs 
    atoms 9, 12           entry O          line   318 file /opt/psi/4/master/share/psi4/basis/def2-universal-jkfit.gbs 

  ==> Integral Setup <==

  ==> DiskDFJK: Density-Fitted J/K Matrices <==

    J tasked:                  Yes
    K tasked:                  Yes
    wK tasked:                  No
    OpenMP threads:              4
    Integrals threads:           4
    Memory [MiB]:              375
    Algorithm:                Core
    Integral Cache:           NONE
    Schwarz Cutoff:          1E-12
    Fitting Condition:       1E-10

   => Auxiliary Basis Set <=

  Basis Set: (PCSEG-0 AUX)
    Blend: DEF2-UNIVERSAL-JKFIT
    Number of shells: 186
    Number of basis function: 562
    Number of Cartesian functions: 662
    Spherical Harmonics?: true
    Max angular momentum: 4

  Minimum eigenvalue in the overlap matrix is 1.2764355891E-03.
  Reciprocal condition number of the overlap matrix is 2.1013138416E-04.
    Using symmetric orthogonalization.

  ==> Pre-Iterations <==

  SCF Guess: Superposition of Atomic Densities via on-the-fly atomic UHF (no occupation information).

   -------------------------
    Irrep   Nso     Nmo    
   -------------------------
     A         66      66 
   -------------------------
    Total      66      66
   -------------------------

  ==> Iterations <==

                           Total Energy        Delta E     RMS |[F,P]|

   @DF-RHF iter SAD:  -303.78293172523519   -3.03783e+02   0.00000e+00 
   @DF-RHF iter   1:  -303.56522703282127    2.17705e-01   7.20889e-03 DIIS
   @DF-RHF iter   2:  -303.66411702326656   -9.88900e-02   3.86617e-03 DIIS
   @DF-RHF iter   3:  -303.68845917084798   -2.43421e-02   6.09810e-04 DIIS
   @DF-RHF iter   4:  -303.68959904924941   -1.13988e-03   1.89632e-04 DIIS
   @DF-RHF iter   5:  -303.68968743132092   -8.83821e-05   4.01069e-05 DIIS
   @DF-RHF iter   6:  -303.68969454820513   -7.11688e-06   8.08892e-06 DIIS
   @DF-RHF iter   7:  -303.68969491972422   -3.71519e-07   1.66874e-06 DIIS
   @DF-RHF iter   8:  -303.68969493279104   -1.30668e-08   5.23061e-07 DIIS
   @DF-RHF iter   9:  -303.68969493412192   -1.33087e-09   1.00059e-07 DIIS
   @DF-RHF iter  10:  -303.68969493418479   -6.28688e-11   1.69220e-08 DIIS
   @DF-RHF iter  11:  -303.68969493418649   -1.70530e-12   2.52794e-09 DIIS
   @DF-RHF iter  12:  -303.68969493418706   -5.68434e-13   5.06629e-10 DIIS
   @DF-RHF iter  13:  -303.68969493418655    5.11591e-13   1.56003e-10 DIIS
   @DF-RHF iter  14:  -303.68969493418683   -2.84217e-13   3.34608e-11 DIIS
  Energy and wave function converged.


  ==> Post-Iterations <==

    Orbital Energies [Eh]
    ---------------------

    Doubly Occupied:                                                      

       1A    -20.583855     2A    -20.583788     3A    -11.368412  
       4A    -11.368384     5A    -11.254722     6A    -11.254314  
       7A     -1.548724     8A     -1.317316     9A     -1.091166  
      10A     -1.011032    11A     -0.822311    12A     -0.787990  
      13A     -0.770562    14A     -0.684689    15A     -0.664461  
      16A     -0.661758    17A     -0.555072    18A     -0.534273  
      19A     -0.528203    20A     -0.525356    21A     -0.518423  
      22A     -0.467604    23A     -0.441347  

    Virtual:                                                              

      24A      0.203701    25A      0.232854    26A      0.236731  
      27A      0.242100    28A      0.254705    29A      0.267691  
      30A      0.316063    31A      0.352037    32A      0.354357  
      33A      0.388119    34A      0.408803    35A      0.474127  
      36A      0.575658    37A      0.796061    38A      0.799772  
      39A      0.821359    40A      0.924799    41A      0.933997  
      42A      0.944517    43A      0.951731    44A      1.004549  
      45A      1.005397    46A      1.033564    47A      1.061487  
      48A      1.071774    49A      1.136309    50A      1.149861  
      51A      1.171649    52A      1.172975    53A      1.210630  
      54A      1.239250    55A      1.421898    56A      1.454419  
      57A      1.484779    58A      1.525896    59A      1.692473  
      60A      1.710099    61A      1.929915    62A      1.952661  
      63A      2.144809    64A      2.303196    65A      2.379057  
      66A      2.449438  

    Final Occupation by Irrep:
              A 
    DOCC [    23 ]

  @DF-RHF Final Energy:  -303.68969493418683

   => Energetics <=

    Nuclear Repulsion Energy =            258.0599335322315255
    One-Electron Energy =                -924.8117332902573935
    Two-Electron Energy =                 363.0621048238390358
    Total Energy =                       -303.6896949341868321

Computation Completed

  //>>>>>>>>>>>>>>>>>>>>>>>>>>>>>>>>>>>//
  //                SCF                //
  //<<<<<<<<<<<<<<<<<<<<<<<<<<<<<<<<<<<//

   => Loading Basis Set <=

    Name: HEAVY-AUG-CC-PV(T+D)Z
    Role: ORBITAL
    Keyword: BASIS
    atoms 1, 4, 7, 10     entry C          line   273 file /opt/psi/4/master/share/psi4/basis/heavy-aug-cc-pv_tpd_z.gbs 
    atoms 2-3, 5-6, 8, 11 entry H          line    86 file /opt/psi/4/master/share/psi4/basis/heavy-aug-cc-pv_tpd_z.gbs 
    atoms 9, 12           entry O          line   365 file /opt/psi/4/master/share/psi4/basis/heavy-aug-cc-pv_tpd_z.gbs 


         ---------------------------------------------------------
                                   SCF
               by Justin Turney, Rob Parrish, Andy Simmonett
                          and Daniel G. A. Smith
                              RHF Reference
                        4 Threads,    500 MiB Core
         ---------------------------------------------------------

  ==> Geometry <==

    Molecular point group: c1
    Full point group: C1

    Geometry (in Angstrom), charge = 0, multiplicity = 1:

       Center              X                  Y                   Z               Mass       
    ------------   -----------------  -----------------  -----------------  -----------------
         C           -1.169969463277    -0.774075714550    -0.000125580240    12.000000000000
         H           -1.617202611977    -1.211544387650    -0.890367767540     1.007825032230
         H           -1.617274396477    -1.211731322050     0.889988080060     1.007825032230
         C           -1.170087777377     0.774434462887     0.000044788102    12.000000000000
         H           -1.617753465733     1.210634372944     0.890255756237     1.007825032230
         H           -1.617702249814     1.210821462742    -0.890099394464     1.007825032230
         C            0.356504942543     0.919975272750     0.000100296144    12.000000000000
         H            0.840653483725     1.891588284294     0.000208928179     1.007825032230
         O            0.760964393321     0.000110195039    -1.017879413891    15.994914619570
         C            0.357121363197    -0.920221193366    -0.000075751948    12.000000000000
         H            0.841921342072    -1.891509302048    -0.000150360436     1.007825032230
         O            0.760893705080    -0.000085150726     1.017931994510    15.994914619570

  Running in c1 symmetry.

  Rotational constants: A =      0.20028  B =      0.16407  C =      0.14757 [cm^-1]
  Rotational constants: A =   6004.18905  B =   4918.67499  C =   4423.92339 [MHz]
  Nuclear repulsion =  258.059933532231526

  Charge       = 0
  Multiplicity = 1
  Electrons    = 46
  Nalpha       = 23
  Nbeta        = 23

  ==> Algorithm <==

  SCF Algorithm Type is DF.
  DIIS enabled.
  MOM disabled.
  Fractional occupation disabled.
  Guess Type is SAD.
  Energy threshold   = 1.00e-10
  Density threshold  = 1.00e-10
  Integral threshold = 0.00e+00

  ==> Primary Basis <==

  Basis Set: HEAVY-AUG-CC-PV(T+D)Z
    Blend: HEAVY-AUG-CC-PV(T+D)Z
    Number of shells: 120
    Number of basis function: 360
    Number of Cartesian functions: 420
    Spherical Harmonics?: true
    Max angular momentum: 3

   => Loading Basis Set <=

    Name: (HEAVY-AUG-CC-PV(T+D)Z AUX)
    Role: JKFIT
    Keyword: DF_BASIS_SCF
    atoms 1, 4, 7, 10     entry C          line   200 file /opt/psi/4/master/share/psi4/basis/heavy-aug-cc-pvtz-jkfit.gbs 
    atoms 2-3, 5-6, 8, 11 entry H          line   116 file /opt/psi/4/master/share/psi4/basis/heavy-aug-cc-pvtz-jkfit.gbs 
    atoms 9, 12           entry O          line   324 file /opt/psi/4/master/share/psi4/basis/heavy-aug-cc-pvtz-jkfit.gbs 


  Computing basis projection from PCSEG-0 to HEAVY-AUG-CC-PV(T+D)Z

  ==> Integral Setup <==

  ==> DiskDFJK: Density-Fitted J/K Matrices <==

    J tasked:                  Yes
    K tasked:                  Yes
    wK tasked:                  No
    OpenMP threads:              4
    Integrals threads:           4
    Memory [MiB]:              375
    Algorithm:                Disk
    Integral Cache:           NONE
    Schwarz Cutoff:          1E-12
    Fitting Condition:       1E-10

   => Auxiliary Basis Set <=

  Basis Set: (HEAVY-AUG-CC-PV(T+D)Z AUX)
    Blend: HEAVY-AUG-CC-PVTZ-JKFIT
    Number of shells: 240
    Number of basis function: 804
    Number of Cartesian functions: 996
    Spherical Harmonics?: true
    Max angular momentum: 4

  Minimum eigenvalue in the overlap matrix is 5.4687442477E-06.
  Reciprocal condition number of the overlap matrix is 3.9908290708E-07.
    Using symmetric orthogonalization.

  ==> Pre-Iterations <==

  SCF Guess: Orbitals guess was supplied from a previous computation.

   -------------------------
    Irrep   Nso     Nmo    
   -------------------------
     A        360     360 
   -------------------------
    Total     360     360
   -------------------------

  ==> Iterations <==

                           Total Energy        Delta E     RMS |[F,P]|

   @DF-RHF iter   0:  -304.36016512064936   -3.04360e+02   4.19499e-03 
   @DF-RHF iter   1:  -304.71758011181834   -3.57415e-01   5.78084e-04 DIIS
   @DF-RHF iter   2:  -304.73286873849747   -1.52886e-02   2.73840e-04 DIIS
   @DF-RHF iter   3:  -304.73659893743843   -3.73020e-03   4.82265e-05 DIIS
   @DF-RHF iter   4:  -304.73685911556476   -2.60178e-04   1.47391e-05 DIIS
   @DF-RHF iter   5:  -304.73687882375435   -1.97082e-05   6.03127e-06 DIIS
   @DF-RHF iter   6:  -304.73688225956897   -3.43581e-06   1.40514e-06 DIIS
   @DF-RHF iter   7:  -304.73688250474589   -2.45177e-07   3.05106e-07 DIIS
   @DF-RHF iter   8:  -304.73688251778754   -1.30416e-08   8.03934e-08 DIIS
   @DF-RHF iter   9:  -304.73688251869038   -9.02844e-10   2.56532e-08 DIIS
   @DF-RHF iter  10:  -304.73688251877667   -8.62883e-11   6.19747e-09 DIIS
   @DF-RHF iter  11:  -304.73688251878082   -4.14957e-12   1.58508e-09 DIIS
   @DF-RHF iter  12:  -304.73688251878298   -2.16005e-12   4.52386e-10 DIIS
   @DF-RHF iter  13:  -304.73688251878349   -5.11591e-13   7.20270e-11 DIIS
  Energy and wave function converged.


  ==> Post-Iterations <==

    Orbital Energies [Eh]
    ---------------------

    Doubly Occupied:                                                      

       1A    -20.567259     2A    -20.567222     3A    -11.348005  
       4A    -11.347975     5A    -11.236202     6A    -11.235628  
       7A     -1.501511     8A     -1.296810     9A     -1.066834  
      10A     -0.990124    11A     -0.810604    12A     -0.787665  
      13A     -0.748989    14A     -0.676409    15A     -0.657298  
      16A     -0.645315    17A     -0.537574    18A     -0.525232  
      19A     -0.519073    20A     -0.511677    21A     -0.508647  
      22A     -0.459983    23A     -0.431349  

    Virtual:                                                              

      24A      0.050448    25A      0.051299    26A      0.059468  
      27A      0.072113    28A      0.073465    29A      0.092420  
      30A      0.093436    31A      0.096769    32A      0.116631  
      33A      0.126405    34A      0.127461    35A      0.130114  
      36A      0.162140    37A      0.176379    38A      0.195500  
      39A      0.204217    40A      0.206625    41A      0.214152  
      42A      0.220948    43A      0.228175    44A      0.233689  
      45A      0.249489    46A      0.268186    47A      0.268954  
      48A      0.276984    49A      0.295961    50A      0.302175  
      51A      0.315553    52A      0.332118    53A      0.336064  
      54A      0.342732    55A      0.348405    56A      0.357030  
      57A      0.357193    58A      0.362736    59A      0.376036  
      60A      0.398591    61A      0.404053    62A      0.412782  
      63A      0.421482    64A      0.433692    65A      0.447054  
      66A      0.459433    67A      0.469164    68A      0.486522  
      69A      0.493138    70A      0.508566    71A      0.512541  
      72A      0.516724    73A      0.520761    74A      0.527660  
      75A      0.529251    76A      0.543520    77A      0.546048  
      78A      0.580570    79A      0.595836    80A      0.608267  
      81A      0.612090    82A      0.624811    83A      0.654868  
      84A      0.657302    85A      0.672076    86A      0.722660  
      87A      0.737455    88A      0.748450    89A      0.754171  
      90A      0.771670    91A      0.781565    92A      0.793703  
      93A      0.798274    94A      0.817404    95A      0.819998  
      96A      0.830204    97A      0.843424    98A      0.878380  
      99A      0.892104   100A      0.930726   101A      0.930875  
     102A      0.940173   103A      0.946330   104A      0.969940  
     105A      0.988438   106A      1.000187   107A      1.031656  
     108A      1.037825   109A      1.039132   110A      1.061906  
     111A      1.080491   112A      1.096429   113A      1.115875  
     114A      1.123196   115A      1.139010   116A      1.161589  
     117A      1.189205   118A      1.225318   119A      1.249059  
     120A      1.252436   121A      1.262801   122A      1.283206  
     123A      1.323015   124A      1.330795   125A      1.339070  
     126A      1.353421   127A      1.375112   128A      1.382744  
     129A      1.398450   130A      1.404173   131A      1.412757  
     132A      1.448281   133A      1.448449   134A      1.460355  
     135A      1.482051   136A      1.498007   137A      1.506633  
     138A      1.527419   139A      1.547064   140A      1.559669  
     141A      1.583292   142A      1.586161   143A      1.589010  
     144A      1.589973   145A      1.601676   146A      1.656015  
     147A      1.660707   148A      1.670528   149A      1.676423  
     150A      1.684945   151A      1.700078   152A      1.708020  
     153A      1.715729   154A      1.731995   155A      1.736616  
     156A      1.750109   157A      1.752798   158A      1.791862  
     159A      1.802682   160A      1.808630   161A      1.824176  
     162A      1.903636   163A      1.905578   164A      1.931492  
     165A      1.945130   166A      1.948898   167A      1.985385  
     168A      1.993784   169A      2.003787   170A      2.007270  
     171A      2.028319   172A      2.051025   173A      2.055119  
     174A      2.060768   175A      2.150830   176A      2.153474  
     177A      2.214109   178A      2.251837   179A      2.301678  
     180A      2.334384   181A      2.393205   182A      2.402884  
     183A      2.424066   184A      2.441613   185A      2.452763  
     186A      2.480672   187A      2.508344   188A      2.511714  
     189A      2.544937   190A      2.581981   191A      2.631972  
     192A      2.647030   193A      2.682373   194A      2.693453  
     195A      2.725253   196A      2.770924   197A      2.799447  
     198A      2.882203   199A      2.882958   200A      2.895281  
     201A      2.914433   202A      2.920886   203A      2.958386  
     204A      2.966091   205A      2.969579   206A      3.081541  
     207A      3.099705   208A      3.119439   209A      3.131945  
     210A      3.185347   211A      3.188604   212A      3.211943  
     213A      3.227478   214A      3.243627   215A      3.267078  
     216A      3.311989   217A      3.339167   218A      3.412671  
     219A      3.416157   220A      3.418024   221A      3.440078  
     222A      3.442746   223A      3.480438   224A      3.486497  
     225A      3.504086   226A      3.524115   227A      3.539278  
     228A      3.607459   229A      3.629315   230A      3.639647  
     231A      3.671062   232A      3.685867   233A      3.700573  
     234A      3.710648   235A      3.729929   236A      3.735901  
     237A      3.752013   238A      3.820908   239A      3.837261  
     240A      3.844467   241A      3.867469   242A      3.885493  
     243A      3.933432   244A      3.949902   245A      3.966152  
     246A      3.966399   247A      3.969798   248A      4.005026  
     249A      4.025312   250A      4.049929   251A      4.056212  
     252A      4.080322   253A      4.107925   254A      4.114358  
     255A      4.148571   256A      4.167997   257A      4.176267  
     258A      4.185335   259A      4.191717   260A      4.214667  
     261A      4.244551   262A      4.253199   263A      4.260245  
     264A      4.268540   265A      4.274020   266A      4.318260  
     267A      4.345722   268A      4.366914   269A      4.429661  
     270A      4.467083   271A      4.484692   272A      4.486152  
     273A      4.499708   274A      4.516114   275A      4.532090  
     276A      4.554980   277A      4.584706   278A      4.639308  
     279A      4.691081   280A      4.694037   281A      4.703655  
     282A      4.708594   283A      4.735227   284A      4.745077  
     285A      4.758617   286A      4.808878   287A      4.820939  
     288A      4.821732   289A      4.840699   290A      4.888948  
     291A      4.908268   292A      4.959411   293A      4.966043  
     294A      4.968394   295A      5.097329   296A      5.120011  
     297A      5.125415   298A      5.193820   299A      5.199856  
     300A      5.241244   301A      5.273686   302A      5.289881  
     303A      5.398069   304A      5.424702   305A      5.437139  
     306A      5.466781   307A      5.476722   308A      5.583797  
     309A      5.584700   310A      5.606746   311A      5.655748  
     312A      5.704652   313A      5.710977   314A      5.730541  
     315A      5.861367   316A      5.867613   317A      5.900407  
     318A      5.937672   319A      6.061128   320A      6.130144  
     321A      6.153199   322A      6.207591   323A      6.261907  
     324A      6.289101   325A      6.301709   326A      6.361139  
     327A      6.385203   328A      6.498120   329A      6.563381  
     330A      6.901472   331A      6.906101   332A      6.955185  
     333A      6.970940   334A      6.997723   335A      7.032935  
     336A      7.111223   337A      7.141305   338A      7.179604  
     339A      7.206915   340A      7.245628   341A      7.254705  
     342A      7.404402   343A      7.507595   344A      7.599724  
     345A      7.615129   346A      7.659957   347A      7.755705  
     348A      7.811124   349A      7.825094   350A      7.924576  
     351A      8.059698   352A      8.210649   353A      8.213626  
     354A      8.233738   355A     14.278074   356A     15.467200  
     357A     15.713080   358A     15.955993   359A     17.525666  
     360A     18.821602  

    Final Occupation by Irrep:
              A 
    DOCC [    23 ]

  @DF-RHF Final Energy:  -304.73688251878349

   => Energetics <=

    Nuclear Repulsion Energy =            258.0599335322315255
    One-Electron Energy =                -927.6388622818473095
    Two-Electron Energy =                 364.8420462308322954
    Total Energy =                       -304.7368825187834886

Computation Completed


Properties will be evaluated at   0.000000,   0.000000,   0.000000 [a0]

Properties computed using the SCF density matrix

  Nuclear Dipole Moment: [e a0]
     X:    -4.4807      Y:    -0.0016      Z:    -0.0002

  Electronic Dipole Moment: [e a0]
     X:     3.7442      Y:     0.0015      Z:     0.0001

  Dipole Moment: [e a0]
     X:    -0.7365      Y:    -0.0002      Z:    -0.0000     Total:     0.7365

  Dipole Moment: [D]
     X:    -1.8719      Y:    -0.0004      Z:    -0.0001     Total:     1.8719


*** tstop() called on n032 at Fri Jun  5 11:41:38 2020
Module time:
	user time   =      53.87 seconds =       0.90 minutes
	system time =       1.79 seconds =       0.03 minutes
	total time  =         16 seconds =       0.27 minutes
Total time:
	user time   =     342.19 seconds =       5.70 minutes
	system time =       9.90 seconds =       0.17 minutes
	total time  =         92 seconds =       1.53 minutes

*** tstart() called on n032
*** at Fri Jun  5 11:41:38 2020


  //>>>>>>>>>>>>>>>>>>>>>>>>>>>>>>>>>>>//
  //               DFMP2               //
  //<<<<<<<<<<<<<<<<<<<<<<<<<<<<<<<<<<<//

   => Loading Basis Set <=

    Name: (HEAVY-AUG-CC-PV(T+D)Z AUX)
    Role: RIFIT
    Keyword: DF_BASIS_MP2
    atoms 1, 4, 7, 10     entry C          line   148 file /opt/psi/4/master/share/psi4/basis/heavy-aug-cc-pvtz-ri.gbs 
    atoms 2-3, 5-6, 8, 11 entry H          line    44 file /opt/psi/4/master/share/psi4/basis/heavy-aug-cc-pvtz-ri.gbs 
    atoms 9, 12           entry O          line   264 file /opt/psi/4/master/share/psi4/basis/heavy-aug-cc-pvtz-ri.gbs 

	 --------------------------------------------------------
	                          DF-MP2                         
	      2nd-Order Density-Fitted Moller-Plesset Theory     
	              RMP2 Wavefunction,   4 Threads             
	                                                         
	        Rob Parrish, Justin Turney, Andy Simmonett,      
	           Ed Hohenstein, and C. David Sherrill          
	 --------------------------------------------------------

   => Auxiliary Basis Set <=

  Basis Set: (HEAVY-AUG-CC-PV(T+D)Z AUX)
    Blend: HEAVY-AUG-CC-PVTZ-RI
    Number of shells: 228
    Number of basis function: 816
    Number of Cartesian functions: 1026
    Spherical Harmonics?: true
    Max angular momentum: 4

	 --------------------------------------------------------
	                 NBF =   360, NAUX =   816
	 --------------------------------------------------------
	   CLASS    FOCC     OCC    AOCC    AVIR     VIR    FVIR
	   PAIRS       6      23      17     337     337       0
	 --------------------------------------------------------

	-----------------------------------------------------------
	 ==================> DF-MP2 Energies <==================== 
	-----------------------------------------------------------
	 Reference Energy          =    -304.7368825187834886 [Eh]
	 Singles Energy            =      -0.0000000000000000 [Eh]
	 Same-Spin Energy          =      -0.2850905560309387 [Eh]
	 Opposite-Spin Energy      =      -0.8617633955190300 [Eh]
	 Correlation Energy        =      -1.1468539515499687 [Eh]
	 Total Energy              =    -305.8837364703334742 [Eh]
	-----------------------------------------------------------
	 ================> DF-SCS-MP2 Energies <================== 
	-----------------------------------------------------------
	 SCS Same-Spin Scale       =       0.3333333333333333 [-]
	 SCS Opposite-Spin Scale   =       1.2000000000000000 [-]
	 SCS Same-Spin Energy      =      -0.0950301853436462 [Eh]
	 SCS Opposite-Spin Energy  =      -1.0341160746228359 [Eh]
	 SCS Correlation Energy    =      -1.1291462599664821 [Eh]
	 SCS Total Energy          =    -305.8660287787499783 [Eh]
	-----------------------------------------------------------


*** tstop() called on n032 at Fri Jun  5 11:41:40 2020
Module time:
	user time   =      10.22 seconds =       0.17 minutes
	system time =       0.12 seconds =       0.00 minutes
	total time  =          2 seconds =       0.03 minutes
Total time:
	user time   =     352.41 seconds =       5.87 minutes
	system time =      10.02 seconds =       0.17 minutes
	total time  =         94 seconds =       1.57 minutes

========================OPTAVC-XTPL==========================

MP2/TZ correlation energy -1.1468539515499687

=============================================================

    Psi4 stopped on: Friday, 05 June 2020 11:41AM
    Psi4 wall time for execution: 0:01:34.50

*** Psi4 exiting successfully. Buy a developer a beer!
