
 Primary working directories    : /tmp/320938.419.gen4.q
 Secondary working directories  : /tmp/320938.419.gen4.q
 Wavefunction directory         : /home/vulcan/mel64643/wfu/
 Main file repository           : /tmp/320938.419.gen4.q/

 ARCHNAME  : Linux/x86_64
 FC        : /opt/intel/compilers_and_libraries_2016.1.150/linux/bin/intel64/ifort
 FCVERSION : 16.0.1
 BLASLIB   : -mkl
 id        : ccgc

 Nodes     nprocs
 n029         3
 Number of processes for MPI-2 version of Molpro:   nprocs(total)=    4   nprocs(compute)=    3   nprocs(helper)=    1
 ga_uses_ma=false, calling ma_init with nominal heap.
 GA-space will be limited to   8.0 MW (determined by -G option)

 Using customized tuning parameters: mindgm=10; mindgv=16; mindgc=4; mindgr=1; noblas=0; mincuda=1000; minvec=7
 default implementation of scratch files=sf  

 ***,Frequencies for min3
 memory,1000,m
 gthresh,energy=1.0d-10,orbital=1.0d-10,oneint=1.0d-16,twoint=1.0d-16,optgrad=1.0d-6,compress=1.0d-13
 geomtyp=xyz
 
  geometry = {
  12
  arbitrary comment
     C    1.776964391707    0.711398808326   -0.047331391796
     C    0.491811976407   -0.059992870174   -0.196493901896
     C    0.450332819107   -1.536294019674    0.101417522804
     O   -0.560767745493    0.727234937526    0.254453964104
     O   -1.838203552770    0.092301754332   -0.120536610554
     H    2.586222110991    0.211316771280   -0.611424569411
     H    1.661336483041    1.742777362201   -0.426529720654
     H    2.095987249921    0.773928467540    1.017660955847
     H   -0.504113036683   -1.985061839851   -0.220066180489
     H    1.282538172169   -2.046686394084   -0.417169791494
     H    0.562503777108   -1.718543262634    1.194744108660
     H   -1.987026627919    0.551837663954   -0.966955453493
  }
 
 basis=cc-pvdz
 {rhf;maxit,200}
 {uccsd(t);maxit,200}

 Variables initialized (661), CPU time= 0.01 sec
 Commands  initialized (458), CPU time= 0.01 sec, 486 directives.
 Default parameters read. Elapsed time= 0.08 sec

 Checking input...
 Passed
1


                                         ***  PROGRAM SYSTEM MOLPRO  ***
                         Copyright, University College Cardiff Consultants Limited, 2008

                                    Version 2010.1 linked May 16 2016 07:17:05


 **********************************************************************************************************************************
 LABEL *   Frequencies for min3                                                          
 Linux-4.4.3/n029(x86_64) 64 bit mpp version                                             DATE: 07-Mar-20          TIME: 03:25:50  
 **********************************************************************************************************************************

 SHA1:             9e8077add272b0f3cad6f7df79ec5211205f459d
 **********************************************************************************************************************************

 THRESHOLDS:

 ZERO    =  1.00D-12  ONEINT  =  1.00D-16  TWOINT  =  1.00D-16  PREFAC  =  1.00D-14  LOCALI  =  1.00D-09  EORDER  =  1.00D-04
 ENERGY  =  1.00D-10  ETEST   =  0.00D+00  EDENS   =  0.00D+00  THRDEDEF=  1.00D-06  GRADIENT=  1.00D-02  STEP    =  1.00D-03
 ORBITAL =  1.00D-10  CIVEC   =  1.00D-05  COEFF   =  1.00D-04  PRINTCI =  5.00D-02  PUNCHCI =  9.90D+01  OPTGRAD =  1.00D-06
 OPTENERG=  1.00D-06  OPTSTEP =  3.00D-04  THRGRAD =  1.00D-10  COMPRESS=  1.00D-13  VARMIN  =  1.00D-07  VARMAX  =  1.00D-03
 THRDOUB =  0.00D+00  THRDIV  =  1.00D-05  THRRED  =  1.00D-07  THRPSP  =  1.00D+00  THRDC   =  1.00D-10  THRCS   =  1.00D-10
 THRNRM  =  1.00D-08  THREQ   =  0.00D+00  THRDE   =  1.00D+00  THRREF  =  1.00D-05  SPARFAC =  1.00D+00  THRDLP  =  1.00D-07
 THRDIA  =  1.00D-10  THRDLS  =  1.00D-07  THRGPS  =  0.00D+00  THRKEX  =  0.00D+00  THRDIS  =  2.00D-01  THRVAR  =  1.00D-10
 THRLOC  =  1.00D-06  THRGAP  =  1.00D-06  THRLOCT = -1.00D+00  THRGAPT = -1.00D+00  THRORB  =  1.00D-06  THRMLTP =  0.00D+00
 THRCPQCI=  1.00D-10  KEXTA   =  0.00D+00  THRCOARS=  0.00D+00  SYMTOL  =  1.00D-06  GRADTOL =  1.00D-06  THROVL  =  1.00D-08
 THRORTH =  1.00D-08  GRID    =  1.00D-06  GRIDMAX =  1.00D-03  DTMAX   =  0.00D+00

 SETTING GEOMTYP        =    XYZ

 Variable memory set to 1000000000 words,  buffer space   230000 words

 SETTING BASIS          =    CC-PVDZ


 Recomputing integrals since basis changed


 Using spherical harmonics

 Library entry C      S cc-pVDZ              selected for orbital group  1
 Library entry C      P cc-pVDZ              selected for orbital group  1
 Library entry C      D cc-pVDZ              selected for orbital group  1
 Library entry O      S cc-pVDZ              selected for orbital group  2
 Library entry O      P cc-pVDZ              selected for orbital group  2
 Library entry O      D cc-pVDZ              selected for orbital group  2
 Library entry H      S cc-pVDZ              selected for orbital group  3
 Library entry H      P cc-pVDZ              selected for orbital group  3

1PROGRAM * SEWARD (Integral evaluation for generally contracted gaussian basis sets)     Author: Roland Lindh, 1990

 Geometry written to block  1 of record 700


 Point group  C1  



 ATOMIC COORDINATES

 NR  ATOM    CHARGE       X              Y              Z

   1  C       6.00    3.357976046    1.344348918   -0.089443368
   2  C       6.00    0.929389944   -0.113370094   -0.371319661
   3  C       6.00    0.851005696   -2.903174955    0.191651343
   4  O       8.00   -1.059697462    1.374274865    0.480848305
   5  O       8.00   -3.473701289    0.174425037   -0.227781183
   6  H       1.00    4.887251505    0.399330825   -1.155424986
   7  H       1.00    3.139470965    3.293371923   -0.806024359
   8  H       1.00    3.960841877    1.462512849    1.923100501
   9  H       1.00   -0.952635579   -3.751223231   -0.415864812
  10  H       1.00    2.423645898   -3.867676762   -0.788336656
  11  H       1.00    1.062978087   -3.247576111    2.257739162
  12  H       1.00   -3.754936143    1.042822054   -1.827280988

 Bond lengths in Bohr (Angstrom)

 1-2  2.846476668  1-6  2.089990296  1-7  2.088042974  1-8  2.104220224  2-3  2.847119878
     ( 1.506290578)     ( 1.105975232)     ( 1.104944753)     ( 1.113505385)     ( 1.506630951)

  2- 4  2.625975338   3- 9  2.083598715   3-10  2.088979995   3-11  2.105294119   4- 5  2.787330234
       ( 1.389606300)       ( 1.102592953)       ( 1.105440604)       ( 1.114073666)       ( 1.474991634)

  5-12  1.841631356
       ( 0.974549341)

 Bond angles

  1-2-3  120.37866573   1-2-4  108.90555081   2-1-6  110.01246704   2-1-7  110.77814794

  2- 1- 8  111.58689227   2- 3- 9  111.40736585   2- 3-10  109.81154053   2- 3-11  110.58362852

  2- 4- 5  109.24738879   3- 2- 4  118.03986083   4- 5-12   98.63170787   6- 1- 7  108.88032392

  6- 1- 8  107.67234107   7- 1- 8  107.80604770   9- 3-10  109.08507853   9- 3-11  107.86140922

 10- 3-11  108.00244164

 NUCLEAR CHARGE:                   41
 NUMBER OF PRIMITIVE AOS:         184
 NUMBER OF SYMMETRY AOS:          179
 NUMBER OF CONTRACTIONS:          105   ( 105A   )
 NUMBER OF CORE ORBITALS:           5   (   5A   )
 NUMBER OF VALENCE ORBITALS:       27   (  27A   )


 NUCLEAR REPULSION ENERGY  183.20520298


 Eigenvalues of metric

         1 0.345E-02 0.435E-02 0.105E-01 0.141E-01 0.182E-01 0.214E-01 0.331E-01 0.346E-01


 Contracted 2-electron integrals neglected if value below      1.0D-16
 AO integral compression algorithm  1   Integral accuracy      1.0D-16

     127.664 MB (compressed) written to integral file ( 93.2%)

     Node minimum: 41.419 MB, node maximum: 44.040 MB


 NUMBER OF SORTED TWO-ELECTRON INTEGRALS:    5164320.     BUFFER LENGTH:  32768
 NUMBER OF SEGMENTS:   1  SEGMENT LENGTH:    5164320      RECORD LENGTH: 524288

 Memory used in sort:       5.72 MW

 SORT1 READ    17075332. AND WROTE     5135837. INTEGRALS IN     15 RECORDS. CPU TIME:     0.24 SEC, REAL TIME:     0.28 SEC
 SORT2 READ    15396424. AND WROTE    15487395. INTEGRALS IN    474 RECORDS. CPU TIME:     0.07 SEC, REAL TIME:     0.12 SEC

 Node minimum:     5160610.  Node maximum:     5164320. integrals

 OPERATOR DM      FOR CENTER  0  COORDINATES:    0.000000    0.000000    0.000000


 **********************************************************************************************************************************
 DATASETS  * FILE   NREC   LENGTH (MB)   RECORD NAMES
              1      18        3.17       500      610      700      900      950      970     1000      129      960     1100   
                                          VAR    BASINP    GEOM    SYMINP    ZMAT    AOBASIS   BASIS     P2S    ABASIS      S 
                                         1400     1410     1200     1210     1080     1600     1650     1700   
                                           T        V       H0       H01     AOSYM     SMH    MOLCAS    OPER   

 PROGRAMS   *        TOTAL       INT
 CPU TIMES  *         1.33      1.22
 REAL TIME  *         1.64 SEC
 DISK USED  *       305.43 MB      
 GA USED    *         0.00 MB       (max)       0.00 MB       (current)
 **********************************************************************************************************************************

1PROGRAM * RHF-SCF (OPEN SHELL)       Authors: W. Meyer, H.-J. Werner


 NUMBER OF ELECTRONS:      21+   20-    SPACE SYMMETRY=1    SPIN SYMMETRY: Doublet 
 CONVERGENCE THRESHOLDS:    1.00E-10 (Density)    1.00E-11 (Energy)
 MAX. NUMBER OF ITERATIONS:      200
 INTERPOLATION TYPE:            DIIS
 INTERPOLATION STEPS:              2 (START)      1 (STEP)
 LEVEL SHIFTS:                 -0.30 (CLOSED)  0.00 (OPEN) 



 Orbital guess generated from atomic densities. Full valence occupancy:   32

 Molecular orbital dump at record        2100.2

 ITERATION    DDIFF          GRAD             ENERGY        2-EL.EN.            DIPOLE MOMENTS         DIIS
    1      0.000D+00      0.000D+00      -267.17815843    555.786127    0.57370    0.04919   -0.74954    0
    2      0.000D+00      0.617D-02      -267.24883827    555.705458    0.41543   -0.13102   -0.59851    1
    3      0.927D-02      0.214D-02      -267.26102478    555.624087    0.39504   -0.05898   -0.62595    2
    4      0.336D-02      0.912D-03      -267.26464005    555.776097    0.38015   -0.09910   -0.64231    3
    5      0.186D-02      0.364D-03      -267.26521131    555.747401    0.38261   -0.09257   -0.63528    4
    6      0.793D-03      0.110D-03      -267.26528823    555.733692    0.38086   -0.09237   -0.63803    5
    7      0.278D-03      0.513D-04      -267.26530856    555.730647    0.38013   -0.09210   -0.63751    6
    8      0.144D-03      0.274D-04      -267.26531468    555.728713    0.38040   -0.09222   -0.63773    7
    9      0.929D-04      0.116D-04      -267.26531561    555.729020    0.38059   -0.09218   -0.63749    8
   10      0.367D-04      0.503D-05      -267.26531577    555.729637    0.38085   -0.09219   -0.63755    9
   11      0.147D-04      0.197D-05      -267.26531579    555.729479    0.38090   -0.09218   -0.63756    9
   12      0.653D-05      0.672D-06      -267.26531580    555.729613    0.38092   -0.09218   -0.63755    9
   13      0.228D-05      0.227D-06      -267.26531580    555.729528    0.38092   -0.09219   -0.63755    9
   14      0.633D-06      0.761D-07      -267.26531580    555.729537    0.38092   -0.09219   -0.63755    9
   15      0.193D-06      0.302D-07      -267.26531580    555.729533    0.38092   -0.09219   -0.63755    9
   16      0.830D-07      0.146D-07      -267.26531580    555.729535    0.38093   -0.09219   -0.63755    9
   17      0.378D-07      0.758D-08      -267.26531580    555.729535    0.38093   -0.09219   -0.63755    9
   18      0.225D-07      0.344D-08      -267.26531580    555.729535    0.38093   -0.09219   -0.63755    9
   19      0.115D-07      0.134D-08      -267.26531580    555.729535    0.38093   -0.09219   -0.63755    9
   20      0.446D-08      0.572D-09      -267.26531580    555.729535    0.38093   -0.09219   -0.63755    9
   21      0.167D-08      0.290D-09      -267.26531580    555.729535    0.38093   -0.09219   -0.63755    9
   22      0.764D-09      0.163D-09      -267.26531580    555.729535    0.38093   -0.09219   -0.63755    9
   23      0.451D-09      0.804D-10      -267.26531580    555.729535    0.38093   -0.09219   -0.63755    9
   24      0.266D-09      0.320D-10      -267.26531580    555.729535    0.38093   -0.09219   -0.63755    9
   25      0.943D-10      0.131D-10      -267.26531580    555.729535    0.38093   -0.09219   -0.63755    0

 Final alpha occupancy:  21
 Final beta  occupancy:  20

 !RHF STATE 1.1 Energy               -267.265315798070
 Nuclear energy                       183.20520298
 One-electron energy                 -728.33528619
 Two-electron energy                  277.86476741
 Virial quotient                       -1.00156470
 !RHF STATE 1.1 Dipole moment           0.38092541    -0.09218699    -0.63754973
 Dipole moment /Debye                   0.96815241    -0.23430061    -1.62038363

 Orbital energies:

         1.1          2.1          3.1          4.1          5.1          6.1          7.1          8.1          9.1         10.1
    -20.630455   -20.628885   -11.279316   -11.237993   -11.232278    -1.470060    -1.240725    -1.023185    -0.945287    -0.768405

        11.1         12.1         13.1         14.1         15.1         16.1         17.1         18.1         19.1         20.1
     -0.704543    -0.643033    -0.626682    -0.588829    -0.545029    -0.543289    -0.538819    -0.516958    -0.493049    -0.469913

        21.1         22.1         23.1
     -0.352284     0.181258     0.183491


 **********************************************************************************************************************************
 DATASETS  * FILE   NREC   LENGTH (MB)   RECORD NAMES
              1      18        3.17       500      610      700      900      950      970     1000      129      960     1100   
                                          VAR    BASINP    GEOM    SYMINP    ZMAT    AOBASIS   BASIS     P2S    ABASIS      S 
                                         1400     1410     1200     1210     1080     1600     1650     1700   
                                           T        V       H0       H01     AOSYM     SMH    MOLCAS    OPER   

              2       3        0.77       700     1000     2100   
                                         GEOM     BASIS     RHF  

 PROGRAMS   *        TOTAL       RHF       INT
 CPU TIMES  *         2.62      1.29      1.22
 REAL TIME  *         3.09 SEC
 DISK USED  *       322.00 MB      
 SF USED    *         0.04 MB      
 GA USED    *         0.00 MB       (max)       0.00 MB       (current)
 **********************************************************************************************************************************


1PROGRAM * CCSD (Unrestricted open-shell coupled cluster)     Authors: C. Hampel, H.-J. Werner, 1991, M. Deegan, P.J. Knowles, 1992


 Convergence thresholds:  THRVAR = 1.00D-08  THRDEN = 1.00D-10

 CCSD(T)     terms to be evaluated (factor= 1.000)


 Number of core orbitals:           5 (   5 )
 Number of closed-shell orbitals:  15 (  15 )
 Number of active  orbitals:        1 (   1 )
 Number of external orbitals:      84 (  84 )

 Memory could be reduced to 24.91 Mwords without degradation in triples

 Number of N-1 electron functions:              31
 Number of N-2 electron functions:             465
 Number of singly external CSFs:              2635
 Number of doubly external CSFs:           2537250
 Total number of CSFs:                     2539885

 Molecular orbitals read from record     2100.2  Type=RHF/CANONICAL (state 1.1)

 Integral transformation finished. Total CPU:   1.14 sec, npass=  1  Memory used:  12.63 MW

 Starting RMP2 calculation

 ITER.      SQ.NORM     CORR.ENERGY   TOTAL ENERGY   ENERGY CHANGE        DEN1      VAR(S)    VAR(P)  DIIS     TIME
   1      1.24309121    -0.78644186  -268.05175766    -0.78644186    -0.00305095  0.20D-04  0.11D-02  1  1     1.50
   2      1.24573430    -0.78973215  -268.05504795    -0.00329029    -0.00000475  0.54D-06  0.19D-05  2  2     1.84
   3      1.24579992    -0.78977425  -268.05509005    -0.00004210    -0.00000003  0.16D-07  0.68D-08  3  3     2.21
   4      1.24580088    -0.78977425  -268.05509005    -0.00000000    -0.00000000  0.27D-09  0.38D-10  4  4     2.61
   5      1.24580096    -0.78977429  -268.05509008    -0.00000003    -0.00000000  0.25D-11  0.65D-12  5  5     3.04
   6      1.24580097    -0.78977429  -268.05509009    -0.00000001    -0.00000000  0.28D-13  0.87D-14  6  6     3.50
   7      1.24580097    -0.78977429  -268.05509009     0.00000000    -0.00000000  0.47D-15  0.12D-15  6  1     3.96
   8      1.24580097    -0.78977429  -268.05509009     0.00000000    -0.00000000  0.60D-17  0.13D-17  6  2     4.41

 Norm of t1 vector:      0.03893924      S-energy:    -0.00227221      T1 diagnostic:  0.00055041
 Norm of t2 vector:      0.49425167      P-energy:    -0.78750209
                                         Alpha-Beta:  -0.59347128
                                         Alpha-Alpha: -0.10094575
                                         Beta-Beta:   -0.09308505

 Spin contamination <S**2-Sz**2-Sz>     0.00104051
  Reference energy                   -267.265315798071
  RHF-RMP2 correlation energy          -0.789774291190
 !RHF-RMP2 energy                    -268.055090089261

 Starting UCCSD calculation

 ITER.      SQ.NORM     CORR.ENERGY   TOTAL ENERGY   ENERGY CHANGE        DEN1      VAR(S)    VAR(P)  DIIS     TIME
   1      1.26286173    -0.80909898  -268.07441478    -0.80909898    -0.02516580  0.38D-02  0.59D-02  1  1    11.14
   2      1.29165254    -0.83651728  -268.10183308    -0.02741830    -0.00201307  0.22D-03  0.66D-03  2  2    17.88
   3      1.30160405    -0.84101936  -268.10633515    -0.00450208    -0.00032492  0.19D-03  0.56D-04  3  3    24.68
   4      1.30652316    -0.84249798  -268.10781378    -0.00147863    -0.00007215  0.43D-04  0.14D-04  4  4    31.47
   5      1.30925545    -0.84288638  -268.10820218    -0.00038840    -0.00002370  0.19D-04  0.32D-05  5  5    38.35
   6      1.31119698    -0.84309107  -268.10840686    -0.00020469    -0.00000647  0.42D-05  0.12D-05  6  6    48.48
   7      1.31214800    -0.84314992  -268.10846572    -0.00005885    -0.00000208  0.14D-05  0.37D-06  6  2    58.61
   8      1.31259085    -0.84319270  -268.10850849    -0.00004277    -0.00000065  0.45D-06  0.11D-06  6  1    68.30
   9      1.31277681    -0.84319731  -268.10851311    -0.00000462    -0.00000022  0.15D-06  0.35D-07  6  4    78.00
  10      1.31284035    -0.84320026  -268.10851606    -0.00000295    -0.00000005  0.35D-07  0.96D-08  6  3    87.82
  11      1.31287004    -0.84319900  -268.10851480     0.00000126    -0.00000002  0.13D-07  0.28D-08  6  5    97.67
  12      1.31288048    -0.84319874  -268.10851454     0.00000026    -0.00000000  0.26D-08  0.96D-09  6  6   104.62
  13      1.31287934    -0.84319783  -268.10851362     0.00000092    -0.00000000  0.97D-09  0.29D-09  6  2   111.48
  14      1.31287412    -0.84319698  -268.10851278     0.00000085    -0.00000000  0.21D-09  0.68D-10  6  1   118.37
  15      1.31287003    -0.84319639  -268.10851219     0.00000059    -0.00000000  0.79D-10  0.19D-10  6  4   125.59
  16      1.31286684    -0.84319600  -268.10851180     0.00000039    -0.00000000  0.28D-10  0.63D-11  6  3   132.43
  17      1.31286463    -0.84319577  -268.10851156     0.00000024    -0.00000000  0.10D-10  0.24D-11  6  5   139.47
  18      1.31286372    -0.84319571  -268.10851150     0.00000006    -0.00000000  0.41D-11  0.87D-12  6  6   146.30
  19      1.31286311    -0.84319567  -268.10851147     0.00000003    -0.00000000  0.16D-11  0.37D-12  6  2   153.20
  20      1.31286279    -0.84319566  -268.10851146     0.00000001    -0.00000000  0.60D-12  0.13D-12  6  1   160.14
  21      1.31286263    -0.84319565  -268.10851145     0.00000001    -0.00000000  0.28D-12  0.58D-13  6  4   166.99
  22      1.31286250    -0.84319564  -268.10851144     0.00000001    -0.00000000  0.74D-13  0.22D-13  6  3   174.25
  23      1.31286245    -0.84319564  -268.10851144     0.00000000    -0.00000000  0.22D-13  0.63D-14  6  5   181.11
  24      1.31286244    -0.84319564  -268.10851144    -0.00000000    -0.00000000  0.68D-14  0.23D-14  6  6   187.94
  25      1.31286244    -0.84319564  -268.10851144    -0.00000000    -0.00000000  0.21D-14  0.53D-15  6  2   194.80
  26      1.31286245    -0.84319564  -268.10851144    -0.00000000    -0.00000000  0.77D-15  0.15D-15  6  1   201.64
  27      1.31286246    -0.84319564  -268.10851144    -0.00000000    -0.00000000  0.20D-15  0.63D-16  6  3   208.46
  28      1.31286246    -0.84319564  -268.10851144    -0.00000000    -0.00000000  0.30D-16  0.11D-16  6  4   215.28
  29      1.31286247    -0.84319564  -268.10851144    -0.00000000    -0.00000000  0.71D-17  0.30D-17  6  5   222.13
  30      1.31286247    -0.84319564  -268.10851144    -0.00000000    -0.00000000  0.15D-17  0.54D-18  6  6   228.97
  31      1.31286247    -0.84319564  -268.10851144    -0.00000000    -0.00000000  0.36D-18  0.11D-18  6  2   235.81

 Norm of t1 vector:      0.13877009      S-energy:    -0.00282207      T1 diagnostic:  0.01617555
                                                                       D1 diagnostic:  0.06284547
 Norm of t2 vector:      0.54185361      P-energy:    -0.84037358
                                         Alpha-Beta:  -0.66493019
                                         Alpha-Alpha: -0.09147278
                                         Beta-Beta:   -0.08397061

 Spin contamination <S**2-Sz**2-Sz>     0.00217455

 Memory could be reduced to 28.85 Mwords without degradation in triples
 

 RESULTS
 =======

  Reference energy                   -267.265315798071
  UCCSD singles energy                 -0.002822065231
  UCCSD pair energy                    -0.840373576579
  UCCSD correlation energy             -0.843195641810
  Triples (T) contribution             -0.024985132421
  Total correlation energy             -0.868180774231
 
  RHF-UCCSD energy                   -268.108511439882
  RHF-UCCSD[T] energy                -268.134833412005
  RHF-UCCSD-T energy                 -268.133074884820
 !RHF-UCCSD(T) energy                -268.133496572302

 Program statistics:

 Available memory in ccsd:               999997692
 Min. memory needed in ccsd:               7337057
 Max. memory used in ccsd:                10523002
 Max. memory used in cckext:              10867977 (31 integral passes)
 Max. memory used in cckint:              12633073 ( 1 integral passes)



 **********************************************************************************************************************************
 DATASETS  * FILE   NREC   LENGTH (MB)   RECORD NAMES
              1      18        3.17       500      610      700      900      950      970     1000      129      960     1100   
                                          VAR    BASINP    GEOM    SYMINP    ZMAT    AOBASIS   BASIS     P2S    ABASIS      S 
                                         1400     1410     1200     1210     1080     1600     1650     1700   
                                           T        V       H0       H01     AOSYM     SMH    MOLCAS    OPER   

              2       3        0.77       700     1000     2100   
                                         GEOM     BASIS     RHF  

 PROGRAMS   *        TOTAL  UCCSD(T)       RHF       INT
 CPU TIMES  *       299.59    296.97      1.29      1.22
 REAL TIME  *       312.82 SEC
 DISK USED  *         1.29 GB      
 SF USED    *       553.73 MB      
 GA USED    *         0.00 MB       (max)       0.00 MB       (current)
 **********************************************************************************************************************************

        UCCSD(T)        RHF-SCF 
   -268.13349657   -267.26531580
 **********************************************************************************************************************************
 Variable memory released
