
 Primary working directories    : /tmp/320938.31.gen6.q
 Secondary working directories  : /tmp/320938.31.gen6.q
 Wavefunction directory         : /home/vulcan/mel64643/wfu/
 Main file repository           : /tmp/320938.31.gen6.q/

 ARCHNAME  : Linux/x86_64
 FC        : /opt/intel/compilers_and_libraries_2016.1.150/linux/bin/intel64/ifort
 FCVERSION : 16.0.1
 BLASLIB   : -mkl
 id        : ccgc

 Nodes     nprocs
 n090         3
 Number of processes for MPI-2 version of Molpro:   nprocs(total)=    4   nprocs(compute)=    3   nprocs(helper)=    1
 ga_uses_ma=false, calling ma_init with nominal heap.
 GA-space will be limited to   8.0 MW (determined by -G option)

 Using customized tuning parameters: mindgm=10; mindgv=16; mindgc=4; mindgr=1; noblas=0; mincuda=1000; minvec=7
 default implementation of scratch files=sf  

 ***,Frequencies for min3
 memory,1000,m
 gthresh,energy=1.0d-10,orbital=1.0d-10,oneint=1.0d-16,twoint=1.0d-16,optgrad=1.0d-6,compress=1.0d-13
 geomtyp=xyz
 
  geometry = {
  12
  arbitrary comment
     C    1.776964391707    0.711398808326   -0.047331391796
     C    0.491811976407   -0.059992870174   -0.196493901896
     C    0.450332819107   -1.536294019674    0.101417522804
     O   -0.560767745493    0.727234937526    0.254892030773
     O   -1.837839505603    0.092276666785   -0.120603353602
     H    2.585601485805    0.211188611997   -0.611796537551
     H    1.660584555261    1.742699461615   -0.427974733894
     H    2.094679092464    0.774521072780    1.016833180418
     H   -0.504814283352   -1.982860883297   -0.220712526877
     H    1.282032344742   -2.047387383206   -0.417016642951
     H    0.561256206228   -1.718608404250    1.194436486622
     H   -1.987668965246    0.550414450341   -0.969403052119
  }
 
 basis=cc-pvdz
 {rhf;maxit,200}
 {uccsd(t);maxit,200}

 Variables initialized (661), CPU time= 0.00 sec
 Commands  initialized (458), CPU time= 0.01 sec, 486 directives.
 Default parameters read. Elapsed time= 0.05 sec

 Checking input...
 Passed
1


                                         ***  PROGRAM SYSTEM MOLPRO  ***
                         Copyright, University College Cardiff Consultants Limited, 2008

                                    Version 2010.1 linked May 16 2016 07:17:05


 **********************************************************************************************************************************
 LABEL *   Frequencies for min3                                                          
 Linux-4.4.3/n090(x86_64) 64 bit mpp version                                             DATE: 07-Mar-20          TIME: 01:07:20  
 **********************************************************************************************************************************

 SHA1:             9e8077add272b0f3cad6f7df79ec5211205f459d
 **********************************************************************************************************************************

 THRESHOLDS:

 ZERO    =  1.00D-12  ONEINT  =  1.00D-16  TWOINT  =  1.00D-16  PREFAC  =  1.00D-14  LOCALI  =  1.00D-09  EORDER  =  1.00D-04
 ENERGY  =  1.00D-10  ETEST   =  0.00D+00  EDENS   =  0.00D+00  THRDEDEF=  1.00D-06  GRADIENT=  1.00D-02  STEP    =  1.00D-03
 ORBITAL =  1.00D-10  CIVEC   =  1.00D-05  COEFF   =  1.00D-04  PRINTCI =  5.00D-02  PUNCHCI =  9.90D+01  OPTGRAD =  1.00D-06
 OPTENERG=  1.00D-06  OPTSTEP =  3.00D-04  THRGRAD =  1.00D-10  COMPRESS=  1.00D-13  VARMIN  =  1.00D-07  VARMAX  =  1.00D-03
 THRDOUB =  0.00D+00  THRDIV  =  1.00D-05  THRRED  =  1.00D-07  THRPSP  =  1.00D+00  THRDC   =  1.00D-10  THRCS   =  1.00D-10
 THRNRM  =  1.00D-08  THREQ   =  0.00D+00  THRDE   =  1.00D+00  THRREF  =  1.00D-05  SPARFAC =  1.00D+00  THRDLP  =  1.00D-07
 THRDIA  =  1.00D-10  THRDLS  =  1.00D-07  THRGPS  =  0.00D+00  THRKEX  =  0.00D+00  THRDIS  =  2.00D-01  THRVAR  =  1.00D-10
 THRLOC  =  1.00D-06  THRGAP  =  1.00D-06  THRLOCT = -1.00D+00  THRGAPT = -1.00D+00  THRORB  =  1.00D-06  THRMLTP =  0.00D+00
 THRCPQCI=  1.00D-10  KEXTA   =  0.00D+00  THRCOARS=  0.00D+00  SYMTOL  =  1.00D-06  GRADTOL =  1.00D-06  THROVL  =  1.00D-08
 THRORTH =  1.00D-08  GRID    =  1.00D-06  GRIDMAX =  1.00D-03  DTMAX   =  0.00D+00

 SETTING GEOMTYP        =    XYZ

 Variable memory set to 1000000000 words,  buffer space   230000 words

 SETTING BASIS          =    CC-PVDZ


 Recomputing integrals since basis changed


 Using spherical harmonics

 Library entry C      S cc-pVDZ              selected for orbital group  1
 Library entry C      P cc-pVDZ              selected for orbital group  1
 Library entry C      D cc-pVDZ              selected for orbital group  1
 Library entry O      S cc-pVDZ              selected for orbital group  2
 Library entry O      P cc-pVDZ              selected for orbital group  2
 Library entry O      D cc-pVDZ              selected for orbital group  2
 Library entry H      S cc-pVDZ              selected for orbital group  3
 Library entry H      P cc-pVDZ              selected for orbital group  3

1PROGRAM * SEWARD (Integral evaluation for generally contracted gaussian basis sets)     Author: Roland Lindh, 1990

 Geometry written to block  1 of record 700


 Point group  C1  



 ATOMIC COORDINATES

 NR  ATOM    CHARGE       X              Y              Z

   1  C       6.00    3.357976046    1.344348918   -0.089443368
   2  C       6.00    0.929389944   -0.113370094   -0.371319661
   3  C       6.00    0.851005696   -2.903174955    0.191651343
   4  O       8.00   -1.059697462    1.374274865    0.481676131
   5  O       8.00   -3.473013339    0.174377629   -0.227907309
   6  H       1.00    4.886078693    0.399088639   -1.156127904
   7  H       1.00    3.138050028    3.293224712   -0.808755038
   8  H       1.00    3.958369818    1.463632711    1.921536232
   9  H       1.00   -0.953960743   -3.747064026   -0.417086230
  10  H       1.00    2.422690023   -3.869001439   -0.788047247
  11  H       1.00    1.060620519   -3.247699211    2.257157841
  12  H       1.00   -3.756149984    1.040132570   -1.831906279

 Bond lengths in Bohr (Angstrom)

 1-2  2.846476668  1-6  2.089600583  1-7  2.088993440  1-8  2.102079984  2-3  2.847119878
     ( 1.506290578)     ( 1.105769004)     ( 1.105447718)     ( 1.112372819)     ( 1.506630951)

  2- 4  2.626244097   3- 9  2.083414035   3-10  2.088736879   3-11  2.104507646   4- 5  2.786997588
       ( 1.389748521)       ( 1.102495224)       ( 1.105311952)       ( 1.113657482)       ( 1.474815605)

  5-12  1.844589568
       ( 0.976114760)

 Bond angles

  1-2-3  120.37866573   1-2-4  108.90165229   2-1-6  109.98151152   2-1-7  110.72255859

  2- 1- 8  111.56042168   2- 3- 9  111.28296864   2- 3-10  109.85423000   2- 3-11  110.59372273

  2- 4- 5  109.22418910   3- 2- 4  118.03269214   4- 5-12   98.75683649   6- 1- 7  108.85885287

  6- 1- 8  107.76716217   7- 1- 8  107.85091983   9- 3-10  109.12023737   9- 3-11  107.86340859

 10- 3-11  108.04124940

 NUCLEAR CHARGE:                   41
 NUMBER OF PRIMITIVE AOS:         184
 NUMBER OF SYMMETRY AOS:          179
 NUMBER OF CONTRACTIONS:          105   ( 105A   )
 NUMBER OF CORE ORBITALS:           5   (   5A   )
 NUMBER OF VALENCE ORBITALS:       27   (  27A   )


 NUCLEAR REPULSION ENERGY  183.21046349


 Eigenvalues of metric

         1 0.345E-02 0.435E-02 0.105E-01 0.141E-01 0.182E-01 0.214E-01 0.331E-01 0.346E-01


 Contracted 2-electron integrals neglected if value below      1.0D-16
 AO integral compression algorithm  1   Integral accuracy      1.0D-16

     127.664 MB (compressed) written to integral file ( 93.2%)

     Node minimum: 40.632 MB, node maximum: 43.778 MB


 NUMBER OF SORTED TWO-ELECTRON INTEGRALS:    5164320.     BUFFER LENGTH:  32768
 NUMBER OF SEGMENTS:   1  SEGMENT LENGTH:    5164320      RECORD LENGTH: 524288

 Memory used in sort:       5.72 MW

 SORT1 READ    17075251. AND WROTE     5135899. INTEGRALS IN     15 RECORDS. CPU TIME:     0.18 SEC, REAL TIME:     0.23 SEC
 SORT2 READ    15396609. AND WROTE    15487395. INTEGRALS IN    501 RECORDS. CPU TIME:     0.05 SEC, REAL TIME:     0.09 SEC

 Node minimum:     5160610.  Node maximum:     5164320. integrals

 OPERATOR DM      FOR CENTER  0  COORDINATES:    0.000000    0.000000    0.000000


 **********************************************************************************************************************************
 DATASETS  * FILE   NREC   LENGTH (MB)   RECORD NAMES
              1      18        3.17       500      610      700      900      950      970     1000      129      960     1100   
                                          VAR    BASINP    GEOM    SYMINP    ZMAT    AOBASIS   BASIS     P2S    ABASIS      S 
                                         1400     1410     1200     1210     1080     1600     1650     1700   
                                           T        V       H0       H01     AOSYM     SMH    MOLCAS    OPER   

 PROGRAMS   *        TOTAL       INT
 CPU TIMES  *         0.83      0.77
 REAL TIME  *         1.22 SEC
 DISK USED  *       305.97 MB      
 GA USED    *         0.00 MB       (max)       0.00 MB       (current)
 **********************************************************************************************************************************

1PROGRAM * RHF-SCF (OPEN SHELL)       Authors: W. Meyer, H.-J. Werner


 NUMBER OF ELECTRONS:      21+   20-    SPACE SYMMETRY=1    SPIN SYMMETRY: Doublet 
 CONVERGENCE THRESHOLDS:    1.00E-10 (Density)    1.00E-11 (Energy)
 MAX. NUMBER OF ITERATIONS:      200
 INTERPOLATION TYPE:            DIIS
 INTERPOLATION STEPS:              2 (START)      1 (STEP)
 LEVEL SHIFTS:                 -0.30 (CLOSED)  0.00 (OPEN) 



 Orbital guess generated from atomic densities. Full valence occupancy:   32

 Molecular orbital dump at record        2100.2

 ITERATION    DDIFF          GRAD             ENERGY        2-EL.EN.            DIPOLE MOMENTS         DIIS
    1      0.000D+00      0.000D+00      -267.17815762    555.803528    0.57046    0.04889   -0.75299    0
    2      0.000D+00      0.617D-02      -267.24884079    555.720991    0.41437   -0.13146   -0.60050    1
    3      0.927D-02      0.214D-02      -267.26101622    555.640027    0.39423   -0.05971   -0.62764    2
    4      0.336D-02      0.912D-03      -267.26462159    555.791605    0.37967   -0.09988   -0.64369    3
    5      0.186D-02      0.363D-03      -267.26519001    555.762872    0.38228   -0.09339   -0.63654    4
    6      0.792D-03      0.110D-03      -267.26526635    555.749114    0.38057   -0.09321   -0.63923    5
    7      0.277D-03      0.511D-04      -267.26528645    555.746084    0.37988   -0.09295   -0.63870    6
    8      0.144D-03      0.272D-04      -267.26529250    555.744137    0.38018   -0.09307   -0.63891    7
    9      0.923D-04      0.115D-04      -267.26529342    555.744448    0.38037   -0.09303   -0.63867    8
   10      0.366D-04      0.501D-05      -267.26529358    555.745063    0.38062   -0.09304   -0.63873    9
   11      0.147D-04      0.196D-05      -267.26529361    555.744905    0.38067   -0.09303   -0.63874    9
   12      0.651D-05      0.670D-06      -267.26529361    555.745040    0.38069   -0.09303   -0.63873    9
   13      0.227D-05      0.226D-06      -267.26529361    555.744956    0.38069   -0.09303   -0.63873    9
   14      0.631D-06      0.755D-07      -267.26529361    555.744964    0.38070   -0.09304   -0.63873    9
   15      0.192D-06      0.297D-07      -267.26529361    555.744960    0.38070   -0.09304   -0.63873    9
   16      0.817D-07      0.143D-07      -267.26529361    555.744962    0.38070   -0.09304   -0.63873    9
   17      0.368D-07      0.741D-08      -267.26529361    555.744962    0.38070   -0.09304   -0.63873    9
   18      0.219D-07      0.339D-08      -267.26529361    555.744962    0.38070   -0.09304   -0.63873    9
   19      0.114D-07      0.132D-08      -267.26529361    555.744962    0.38070   -0.09304   -0.63873    9
   20      0.443D-08      0.562D-09      -267.26529361    555.744962    0.38070   -0.09304   -0.63873    9
   21      0.164D-08      0.284D-09      -267.26529361    555.744962    0.38070   -0.09304   -0.63873    9
   22      0.745D-09      0.160D-09      -267.26529361    555.744962    0.38070   -0.09304   -0.63873    9
   23      0.442D-09      0.789D-10      -267.26529361    555.744962    0.38070   -0.09304   -0.63873    9
   24      0.262D-09      0.314D-10      -267.26529361    555.744962    0.38070   -0.09304   -0.63873    9
   25      0.924D-10      0.128D-10      -267.26529361    555.744962    0.38070   -0.09304   -0.63873    0

 Final alpha occupancy:  21
 Final beta  occupancy:  20

 !RHF STATE 1.1 Energy               -267.265293609084
 Nuclear energy                       183.21046349
 One-electron energy                 -728.34823807
 Two-electron energy                  277.87248096
 Virial quotient                       -1.00156723
 !RHF STATE 1.1 Dipole moment           0.38069736    -0.09303600    -0.63873238
 Dipole moment /Debye                   0.96757279    -0.23645844    -1.62338944

 Orbital energies:

         1.1          2.1          3.1          4.1          5.1          6.1          7.1          8.1          9.1         10.1
    -20.630443   -20.628929   -11.279258   -11.237867   -11.232171    -1.469876    -1.240369    -1.023213    -0.945348    -0.768359

        11.1         12.1         13.1         14.1         15.1         16.1         17.1         18.1         19.1         20.1
     -0.704204    -0.642934    -0.626650    -0.588842    -0.545109    -0.543279    -0.539109    -0.516828    -0.492964    -0.469705

        21.1         22.1         23.1
     -0.352360     0.181123     0.183437


 **********************************************************************************************************************************
 DATASETS  * FILE   NREC   LENGTH (MB)   RECORD NAMES
              1      18        3.17       500      610      700      900      950      970     1000      129      960     1100   
                                          VAR    BASINP    GEOM    SYMINP    ZMAT    AOBASIS   BASIS     P2S    ABASIS      S 
                                         1400     1410     1200     1210     1080     1600     1650     1700   
                                           T        V       H0       H01     AOSYM     SMH    MOLCAS    OPER   

              2       3        0.77       700     1000     2100   
                                         GEOM     BASIS     RHF  

 PROGRAMS   *        TOTAL       RHF       INT
 CPU TIMES  *         1.76      0.93      0.77
 REAL TIME  *         2.29 SEC
 DISK USED  *       322.54 MB      
 SF USED    *         0.04 MB      
 GA USED    *         0.00 MB       (max)       0.00 MB       (current)
 **********************************************************************************************************************************


1PROGRAM * CCSD (Unrestricted open-shell coupled cluster)     Authors: C. Hampel, H.-J. Werner, 1991, M. Deegan, P.J. Knowles, 1992


 Convergence thresholds:  THRVAR = 1.00D-08  THRDEN = 1.00D-10

 CCSD(T)     terms to be evaluated (factor= 1.000)


 Number of core orbitals:           5 (   5 )
 Number of closed-shell orbitals:  15 (  15 )
 Number of active  orbitals:        1 (   1 )
 Number of external orbitals:      84 (  84 )

 Memory could be reduced to 24.91 Mwords without degradation in triples

 Number of N-1 electron functions:              31
 Number of N-2 electron functions:             465
 Number of singly external CSFs:              2635
 Number of doubly external CSFs:           2537250
 Total number of CSFs:                     2539885

 Molecular orbitals read from record     2100.2  Type=RHF/CANONICAL (state 1.1)

 Integral transformation finished. Total CPU:   0.71 sec, npass=  1  Memory used:  12.63 MW

 Starting RMP2 calculation

 ITER.      SQ.NORM     CORR.ENERGY   TOTAL ENERGY   ENERGY CHANGE        DEN1      VAR(S)    VAR(P)  DIIS     TIME
   1      1.24309977    -0.78646591  -268.05175952    -0.78646591    -0.00305107  0.20D-04  0.11D-02  1  1     0.97
   2      1.24574261    -0.78975631  -268.05504992    -0.00329040    -0.00000474  0.54D-06  0.19D-05  2  2     1.21
   3      1.24580816    -0.78979837  -268.05509198    -0.00004206    -0.00000003  0.16D-07  0.68D-08  3  3     1.47
   4      1.24580912    -0.78979838  -268.05509198    -0.00000000    -0.00000000  0.27D-09  0.38D-10  4  4     1.76
   5      1.24580920    -0.78979841  -268.05509202    -0.00000003    -0.00000000  0.25D-11  0.65D-12  5  5     2.07
   6      1.24580921    -0.78979841  -268.05509202    -0.00000001    -0.00000000  0.28D-13  0.87D-14  6  6     2.40
   7      1.24580921    -0.78979841  -268.05509202     0.00000000    -0.00000000  0.47D-15  0.12D-15  6  1     2.74
   8      1.24580921    -0.78979841  -268.05509202     0.00000000    -0.00000000  0.60D-17  0.13D-17  6  2     3.07

 Norm of t1 vector:      0.03891981      S-energy:    -0.00227053      T1 diagnostic:  0.00055004
 Norm of t2 vector:      0.49426153      P-energy:    -0.78752789
                                         Alpha-Beta:  -0.59348932
                                         Alpha-Alpha: -0.10095082
                                         Beta-Beta:   -0.09308775

 Spin contamination <S**2-Sz**2-Sz>     0.00103954
  Reference energy                   -267.265293609085
  RHF-RMP2 correlation energy          -0.789798414095
 !RHF-RMP2 energy                    -268.055092023180

 Starting UCCSD calculation

 ITER.      SQ.NORM     CORR.ENERGY   TOTAL ENERGY   ENERGY CHANGE        DEN1      VAR(S)    VAR(P)  DIIS     TIME
   1      1.26286593    -0.80911767  -268.07441128    -0.80911767    -0.02516683  0.38D-02  0.59D-02  1  1     7.80
   2      1.29165635    -0.83653746  -268.10183107    -0.02741979    -0.00201303  0.22D-03  0.66D-03  2  2    12.55
   3      1.30160667    -0.84103945  -268.10633306    -0.00450199    -0.00032489  0.19D-03  0.56D-04  3  3    17.31
   4      1.30652451    -0.84251794  -268.10781155    -0.00147849    -0.00007214  0.43D-04  0.14D-04  4  4    22.11
   5      1.30925576    -0.84290622  -268.10819983    -0.00038828    -0.00002370  0.19D-04  0.32D-05  5  5    26.91
   6      1.31119687    -0.84311087  -268.10840448    -0.00020465    -0.00000647  0.42D-05  0.12D-05  6  6    31.90
   7      1.31214785    -0.84316971  -268.10846332    -0.00005885    -0.00000208  0.14D-05  0.37D-06  6  2    36.74
   8      1.31259046    -0.84321247  -268.10850608    -0.00004276    -0.00000065  0.45D-06  0.11D-06  6  1    41.58
   9      1.31277593    -0.84321706  -268.10851067    -0.00000459    -0.00000022  0.15D-06  0.35D-07  6  4    46.42
  10      1.31283911    -0.84321999  -268.10851360    -0.00000293    -0.00000005  0.35D-07  0.95D-08  6  3    51.26
  11      1.31286862    -0.84321873  -268.10851234     0.00000126    -0.00000002  0.13D-07  0.28D-08  6  5    56.10
  12      1.31287902    -0.84321847  -268.10851208     0.00000026    -0.00000000  0.26D-08  0.96D-09  6  6    60.92
  13      1.31287788    -0.84321755  -268.10851116     0.00000091    -0.00000000  0.96D-09  0.29D-09  6  2    65.74
  14      1.31287268    -0.84321671  -268.10851032     0.00000084    -0.00000000  0.21D-09  0.68D-10  6  1    70.58
  15      1.31286860    -0.84321612  -268.10850973     0.00000059    -0.00000000  0.78D-10  0.19D-10  6  4    75.39
  16      1.31286541    -0.84321574  -268.10850935     0.00000038    -0.00000000  0.28D-10  0.63D-11  6  3    80.26
  17      1.31286321    -0.84321550  -268.10850911     0.00000024    -0.00000000  0.10D-10  0.24D-11  6  5    86.30
  18      1.31286230    -0.84321544  -268.10850905     0.00000006    -0.00000000  0.41D-11  0.87D-12  6  6    91.14
  19      1.31286169    -0.84321541  -268.10850902     0.00000003    -0.00000000  0.16D-11  0.37D-12  6  2    95.99
  20      1.31286137    -0.84321540  -268.10850900     0.00000001    -0.00000000  0.60D-12  0.13D-12  6  1   100.82
  21      1.31286120    -0.84321539  -268.10850899     0.00000001    -0.00000000  0.28D-12  0.58D-13  6  4   105.69
  22      1.31286108    -0.84321538  -268.10850899     0.00000001    -0.00000000  0.74D-13  0.21D-13  6  3   110.54
  23      1.31286102    -0.84321537  -268.10850898     0.00000000    -0.00000000  0.21D-13  0.63D-14  6  5   115.39
  24      1.31286102    -0.84321537  -268.10850898    -0.00000000    -0.00000000  0.68D-14  0.23D-14  6  6   120.23
  25      1.31286102    -0.84321538  -268.10850898    -0.00000000    -0.00000000  0.21D-14  0.53D-15  6  2   125.08
  26      1.31286103    -0.84321538  -268.10850899    -0.00000000    -0.00000000  0.77D-15  0.15D-15  6  1   129.92
  27      1.31286104    -0.84321538  -268.10850899    -0.00000000    -0.00000000  0.20D-15  0.63D-16  6  3   134.74
  28      1.31286104    -0.84321538  -268.10850899    -0.00000000    -0.00000000  0.30D-16  0.11D-16  6  4   139.76
  29      1.31286105    -0.84321538  -268.10850899    -0.00000000    -0.00000000  0.71D-17  0.29D-17  6  5   144.59
  30      1.31286105    -0.84321538  -268.10850899    -0.00000000    -0.00000000  0.15D-17  0.54D-18  6  6   149.46
  31      1.31286105    -0.84321538  -268.10850899    -0.00000000    -0.00000000  0.36D-18  0.11D-18  6  2   154.29

 Norm of t1 vector:      0.13875481      S-energy:    -0.00281989      T1 diagnostic:  0.01617508
                                                                       D1 diagnostic:  0.06281953
 Norm of t2 vector:      0.54185621      P-energy:    -0.84039549
                                         Alpha-Beta:  -0.66494829
                                         Alpha-Alpha: -0.09147634
                                         Beta-Beta:   -0.08397086

 Spin contamination <S**2-Sz**2-Sz>     0.00217222

 Memory could be reduced to 28.85 Mwords without degradation in triples
 

 RESULTS
 =======

  Reference energy                   -267.265293609085
  UCCSD singles energy                 -0.002819892539
  UCCSD pair energy                    -0.840395485165
  UCCSD correlation energy             -0.843215377704
  Triples (T) contribution             -0.024985228898
  Total correlation energy             -0.868200606602
 
  RHF-UCCSD energy                   -268.108508986789
  RHF-UCCSD[T] energy                -268.134831362626
  RHF-UCCSD-T energy                 -268.133072219371
 !RHF-UCCSD(T) energy                -268.133494215687

 Program statistics:

 Available memory in ccsd:               999997692
 Min. memory needed in ccsd:               7337057
 Max. memory used in ccsd:                10523002
 Max. memory used in cckext:              10867977 (31 integral passes)
 Max. memory used in cckint:              12633073 ( 1 integral passes)



 **********************************************************************************************************************************
 DATASETS  * FILE   NREC   LENGTH (MB)   RECORD NAMES
              1      18        3.17       500      610      700      900      950      970     1000      129      960     1100   
                                          VAR    BASINP    GEOM    SYMINP    ZMAT    AOBASIS   BASIS     P2S    ABASIS      S 
                                         1400     1410     1200     1210     1080     1600     1650     1700   
                                           T        V       H0       H01     AOSYM     SMH    MOLCAS    OPER   

              2       3        0.77       700     1000     2100   
                                         GEOM     BASIS     RHF  

 PROGRAMS   *        TOTAL  UCCSD(T)       RHF       INT
 CPU TIMES  *       193.10    191.34      0.93      0.77
 REAL TIME  *       203.60 SEC
 DISK USED  *         1.29 GB      
 SF USED    *       553.73 MB      
 GA USED    *         0.00 MB       (max)       0.00 MB       (current)
 **********************************************************************************************************************************

        UCCSD(T)        RHF-SCF 
   -268.13349422   -267.26529361
 **********************************************************************************************************************************
 Variable memory released
