
 Primary working directories    : /tmp/320938.319.gen4.q
 Secondary working directories  : /tmp/320938.319.gen4.q
 Wavefunction directory         : /home/vulcan/mel64643/wfu/
 Main file repository           : /tmp/320938.319.gen4.q/

 ARCHNAME  : Linux/x86_64
 FC        : /opt/intel/compilers_and_libraries_2016.1.150/linux/bin/intel64/ifort
 FCVERSION : 16.0.1
 BLASLIB   : -mkl
 id        : ccgc

 Nodes     nprocs
 n021         3
 Number of processes for MPI-2 version of Molpro:   nprocs(total)=    4   nprocs(compute)=    3   nprocs(helper)=    1
 ga_uses_ma=false, calling ma_init with nominal heap.
 GA-space will be limited to   8.0 MW (determined by -G option)

 Using customized tuning parameters: mindgm=10; mindgv=16; mindgc=4; mindgr=1; noblas=0; mincuda=1000; minvec=7
 default implementation of scratch files=sf  

 ***,Frequencies for min3
 memory,1000,m
 gthresh,energy=1.0d-10,orbital=1.0d-10,oneint=1.0d-16,twoint=1.0d-16,optgrad=1.0d-6,compress=1.0d-13
 geomtyp=xyz
 
  geometry = {
  12
  arbitrary comment
     C    1.776964391707    0.711398808326   -0.046821519474
     C    0.491772914207   -0.060028174781   -0.196761682970
     C    0.450345077466   -1.536282654516    0.101388159445
     O   -0.560717392583    0.727274119304    0.254264859039
     O   -1.837864259533    0.092254635938   -0.120377205431
     H    2.585255590082    0.211357702265   -0.612151972707
     H    1.660350277008    1.742812233368   -0.427305404866
     H    2.095320176708    0.774196115869    1.016945373232
     H   -0.504922427840   -1.982811306054   -0.219860703635
     H    1.281804802437   -2.047277558974   -0.417267031373
     H    0.562005293633   -1.718987479819    1.194721897980
     H   -1.988230401757    0.550690064526   -0.966884364526
  }
 
 basis=cc-pvdz
 {rhf;maxit,200}
 {uccsd(t);maxit,200}

 Variables initialized (661), CPU time= 0.01 sec
 Commands  initialized (458), CPU time= 0.01 sec, 486 directives.
 Default parameters read. Elapsed time= 0.07 sec

 Checking input...
 Passed
1


                                         ***  PROGRAM SYSTEM MOLPRO  ***
                         Copyright, University College Cardiff Consultants Limited, 2008

                                    Version 2010.1 linked May 16 2016 07:17:05


 **********************************************************************************************************************************
 LABEL *   Frequencies for min3                                                          
 Linux-4.4.3/n021(x86_64) 64 bit mpp version                                             DATE: 07-Mar-20          TIME: 02:50:20  
 **********************************************************************************************************************************

 SHA1:             9e8077add272b0f3cad6f7df79ec5211205f459d
 **********************************************************************************************************************************

 THRESHOLDS:

 ZERO    =  1.00D-12  ONEINT  =  1.00D-16  TWOINT  =  1.00D-16  PREFAC  =  1.00D-14  LOCALI  =  1.00D-09  EORDER  =  1.00D-04
 ENERGY  =  1.00D-10  ETEST   =  0.00D+00  EDENS   =  0.00D+00  THRDEDEF=  1.00D-06  GRADIENT=  1.00D-02  STEP    =  1.00D-03
 ORBITAL =  1.00D-10  CIVEC   =  1.00D-05  COEFF   =  1.00D-04  PRINTCI =  5.00D-02  PUNCHCI =  9.90D+01  OPTGRAD =  1.00D-06
 OPTENERG=  1.00D-06  OPTSTEP =  3.00D-04  THRGRAD =  1.00D-10  COMPRESS=  1.00D-13  VARMIN  =  1.00D-07  VARMAX  =  1.00D-03
 THRDOUB =  0.00D+00  THRDIV  =  1.00D-05  THRRED  =  1.00D-07  THRPSP  =  1.00D+00  THRDC   =  1.00D-10  THRCS   =  1.00D-10
 THRNRM  =  1.00D-08  THREQ   =  0.00D+00  THRDE   =  1.00D+00  THRREF  =  1.00D-05  SPARFAC =  1.00D+00  THRDLP  =  1.00D-07
 THRDIA  =  1.00D-10  THRDLS  =  1.00D-07  THRGPS  =  0.00D+00  THRKEX  =  0.00D+00  THRDIS  =  2.00D-01  THRVAR  =  1.00D-10
 THRLOC  =  1.00D-06  THRGAP  =  1.00D-06  THRLOCT = -1.00D+00  THRGAPT = -1.00D+00  THRORB  =  1.00D-06  THRMLTP =  0.00D+00
 THRCPQCI=  1.00D-10  KEXTA   =  0.00D+00  THRCOARS=  0.00D+00  SYMTOL  =  1.00D-06  GRADTOL =  1.00D-06  THROVL  =  1.00D-08
 THRORTH =  1.00D-08  GRID    =  1.00D-06  GRIDMAX =  1.00D-03  DTMAX   =  0.00D+00

 SETTING GEOMTYP        =    XYZ

 Variable memory set to 1000000000 words,  buffer space   230000 words

 SETTING BASIS          =    CC-PVDZ


 Recomputing integrals since basis changed


 Using spherical harmonics

 Library entry C      S cc-pVDZ              selected for orbital group  1
 Library entry C      P cc-pVDZ              selected for orbital group  1
 Library entry C      D cc-pVDZ              selected for orbital group  1
 Library entry O      S cc-pVDZ              selected for orbital group  2
 Library entry O      P cc-pVDZ              selected for orbital group  2
 Library entry O      D cc-pVDZ              selected for orbital group  2
 Library entry H      S cc-pVDZ              selected for orbital group  3
 Library entry H      P cc-pVDZ              selected for orbital group  3

1PROGRAM * SEWARD (Integral evaluation for generally contracted gaussian basis sets)     Author: Roland Lindh, 1990

 Geometry written to block  1 of record 700


 Point group  C1  



 ATOMIC COORDINATES

 NR  ATOM    CHARGE       X              Y              Z

   1  C       6.00    3.357976046    1.344348918   -0.088479849
   2  C       6.00    0.929316127   -0.113436811   -0.371825694
   3  C       6.00    0.851028861   -2.903153477    0.191595854
   4  O       8.00   -1.059602309    1.374348908    0.480490948
   5  O       8.00   -3.473060117    0.174335996   -0.227479951
   6  H       1.00    4.885425045    0.399408173   -1.156799579
   7  H       1.00    3.137607306    3.293437820   -0.807490190
   8  H       1.00    3.959581292    1.463018631    1.921748246
   9  H       1.00   -0.954165106   -3.746970339   -0.415476517
  10  H       1.00    2.422260031   -3.868793901   -0.788520413
  11  H       1.00    1.062036089   -3.248415560    2.257697190
  12  H       1.00   -3.757210945    1.040653405   -1.827146650

 Bond lengths in Bohr (Angstrom)

 1-2  2.846719709  1-6  2.089813509  1-7  2.089135179  1-8  2.101672754  2-3  2.847119917
     ( 1.506419190)     ( 1.105881680)     ( 1.105522723)     ( 1.112157322)     ( 1.506630971)

  2- 4  2.625975352   3- 9  2.083096018   3-10  2.088505857   3-11  2.105351440   4- 5  2.786760193
       ( 1.389606307)       ( 1.102326937)       ( 1.105189700)       ( 1.114103999)       ( 1.474689981)

  5-12  1.841244442
       ( 0.974344595)

 Bond angles

  1-2-3  120.36656221   1-2-4  108.88878762   2-1-6  109.94581723   2-1-7  110.70252672

  2- 1- 8  111.61273953   2- 3- 9  111.28876910   2- 3-10  109.84532055   2- 3-11  110.61782241

  2- 4- 5  109.23946093   3- 2- 4  118.03985942   4- 5-12   98.72910071   6- 1- 7  108.84522543

  6- 1- 8  107.77445273   7- 1- 8  107.86089241   9- 3-10  109.14141656   9- 3-11  107.84352458

 10- 3-11  108.01808165

 NUCLEAR CHARGE:                   41
 NUMBER OF PRIMITIVE AOS:         184
 NUMBER OF SYMMETRY AOS:          179
 NUMBER OF CONTRACTIONS:          105   ( 105A   )
 NUMBER OF CORE ORBITALS:           5   (   5A   )
 NUMBER OF VALENCE ORBITALS:       27   (  27A   )


 NUCLEAR REPULSION ENERGY  183.22322256


 Eigenvalues of metric

         1 0.345E-02 0.435E-02 0.105E-01 0.141E-01 0.182E-01 0.214E-01 0.331E-01 0.345E-01


 Contracted 2-electron integrals neglected if value below      1.0D-16
 AO integral compression algorithm  1   Integral accuracy      1.0D-16

     127.402 MB (compressed) written to integral file ( 93.4%)

     Node minimum: 41.419 MB, node maximum: 44.302 MB


 NUMBER OF SORTED TWO-ELECTRON INTEGRALS:    5164320.     BUFFER LENGTH:  32768
 NUMBER OF SEGMENTS:   1  SEGMENT LENGTH:    5164320      RECORD LENGTH: 524288

 Memory used in sort:       5.72 MW

 SORT1 READ    17075251. AND WROTE     5135897. INTEGRALS IN     15 RECORDS. CPU TIME:     0.36 SEC, REAL TIME:     0.41 SEC
 SORT2 READ    15396633. AND WROTE    15487395. INTEGRALS IN    474 RECORDS. CPU TIME:     0.10 SEC, REAL TIME:     0.16 SEC

 Node minimum:     5160610.  Node maximum:     5164320. integrals

 OPERATOR DM      FOR CENTER  0  COORDINATES:    0.000000    0.000000    0.000000


 **********************************************************************************************************************************
 DATASETS  * FILE   NREC   LENGTH (MB)   RECORD NAMES
              1      18        3.17       500      610      700      900      950      970     1000      129      960     1100   
                                          VAR    BASINP    GEOM    SYMINP    ZMAT    AOBASIS   BASIS     P2S    ABASIS      S 
                                         1400     1410     1200     1210     1080     1600     1650     1700   
                                           T        V       H0       H01     AOSYM     SMH    MOLCAS    OPER   

 PROGRAMS   *        TOTAL       INT
 CPU TIMES  *         1.90      1.79
 REAL TIME  *         2.21 SEC
 DISK USED  *       305.70 MB      
 GA USED    *         0.00 MB       (max)       0.00 MB       (current)
 **********************************************************************************************************************************

1PROGRAM * RHF-SCF (OPEN SHELL)       Authors: W. Meyer, H.-J. Werner


 NUMBER OF ELECTRONS:      21+   20-    SPACE SYMMETRY=1    SPIN SYMMETRY: Doublet 
 CONVERGENCE THRESHOLDS:    1.00E-10 (Density)    1.00E-11 (Energy)
 MAX. NUMBER OF ITERATIONS:      200
 INTERPOLATION TYPE:            DIIS
 INTERPOLATION STEPS:              2 (START)      1 (STEP)
 LEVEL SHIFTS:                 -0.30 (CLOSED)  0.00 (OPEN) 



 Orbital guess generated from atomic densities. Full valence occupancy:   32

 Molecular orbital dump at record        2100.2

 ITERATION    DDIFF          GRAD             ENERGY        2-EL.EN.            DIPOLE MOMENTS         DIIS
    1      0.000D+00      0.000D+00      -267.17825940    555.819266    0.56972    0.04953   -0.75032    0
    2      0.000D+00      0.617D-02      -267.24894108    555.741616    0.41399   -0.13127   -0.59876    1
    3      0.927D-02      0.214D-02      -267.26111375    555.659430    0.39372   -0.05931   -0.62592    2
    4      0.336D-02      0.912D-03      -267.26471999    555.811697    0.37913   -0.09951   -0.64217    3
    5      0.186D-02      0.363D-03      -267.26528839    555.783012    0.38165   -0.09302   -0.63505    4
    6      0.792D-03      0.110D-03      -267.26536464    555.769250    0.37991   -0.09282   -0.63776    5
    7      0.277D-03      0.511D-04      -267.26538473    555.766238    0.37919   -0.09257   -0.63724    6
    8      0.143D-03      0.272D-04      -267.26539078    555.764290    0.37946   -0.09268   -0.63745    7
    9      0.923D-04      0.115D-04      -267.26539169    555.764602    0.37965   -0.09264   -0.63721    8
   10      0.366D-04      0.501D-05      -267.26539185    555.765214    0.37991   -0.09266   -0.63727    9
   11      0.146D-04      0.196D-05      -267.26539188    555.765057    0.37996   -0.09265   -0.63728    9
   12      0.650D-05      0.670D-06      -267.26539188    555.765191    0.37998   -0.09265   -0.63728    9
   13      0.227D-05      0.226D-06      -267.26539188    555.765107    0.37998   -0.09265   -0.63727    9
   14      0.632D-06      0.757D-07      -267.26539188    555.765115    0.37998   -0.09265   -0.63727    9
   15      0.193D-06      0.300D-07      -267.26539188    555.765111    0.37998   -0.09265   -0.63727    9
   16      0.824D-07      0.145D-07      -267.26539188    555.765113    0.37998   -0.09265   -0.63727    9
   17      0.374D-07      0.751D-08      -267.26539188    555.765113    0.37998   -0.09265   -0.63727    9
   18      0.223D-07      0.342D-08      -267.26539188    555.765113    0.37998   -0.09265   -0.63727    9
   19      0.114D-07      0.133D-08      -267.26539188    555.765113    0.37998   -0.09265   -0.63727    9
   20      0.443D-08      0.567D-09      -267.26539188    555.765113    0.37998   -0.09265   -0.63727    9
   21      0.166D-08      0.286D-09      -267.26539188    555.765113    0.37998   -0.09265   -0.63727    9
   22      0.754D-09      0.162D-09      -267.26539188    555.765113    0.37998   -0.09265   -0.63727    9
   23      0.446D-09      0.795D-10      -267.26539188    555.765113    0.37998   -0.09265   -0.63727    9
   24      0.263D-09      0.316D-10      -267.26539188    555.765113    0.37998   -0.09265   -0.63727    9
   25      0.931D-10      0.129D-10      -267.26539188    555.765113    0.37998   -0.09265   -0.63727    0

 Final alpha occupancy:  21
 Final beta  occupancy:  20

 !RHF STATE 1.1 Energy               -267.265391878948
 Nuclear energy                       183.22322256
 One-electron energy                 -728.37117093
 Two-electron energy                  277.88255649
 Virial quotient                       -1.00155483
 !RHF STATE 1.1 Dipole moment           0.37998310    -0.09265331    -0.63727335
 Dipole moment /Debye                   0.96575745    -0.23548580    -1.61968121

 Orbital energies:

         1.1          2.1          3.1          4.1          5.1          6.1          7.1          8.1          9.1         10.1
    -20.630475   -20.628800   -11.279281   -11.237860   -11.232186    -1.470164    -1.240730    -1.023205    -0.945333    -0.768455

        11.1         12.1         13.1         14.1         15.1         16.1         17.1         18.1         19.1         20.1
     -0.704591    -0.642985    -0.626732    -0.588927    -0.545056    -0.543325    -0.539076    -0.516858    -0.493004    -0.469780

        21.1         22.1         23.1
     -0.352409     0.181277     0.183537


 **********************************************************************************************************************************
 DATASETS  * FILE   NREC   LENGTH (MB)   RECORD NAMES
              1      18        3.17       500      610      700      900      950      970     1000      129      960     1100   
                                          VAR    BASINP    GEOM    SYMINP    ZMAT    AOBASIS   BASIS     P2S    ABASIS      S 
                                         1400     1410     1200     1210     1080     1600     1650     1700   
                                           T        V       H0       H01     AOSYM     SMH    MOLCAS    OPER   

              2       3        0.77       700     1000     2100   
                                         GEOM     BASIS     RHF  

 PROGRAMS   *        TOTAL       RHF       INT
 CPU TIMES  *         3.86      1.95      1.79
 REAL TIME  *         4.34 SEC
 DISK USED  *       322.27 MB      
 SF USED    *         0.04 MB      
 GA USED    *         0.00 MB       (max)       0.00 MB       (current)
 **********************************************************************************************************************************


1PROGRAM * CCSD (Unrestricted open-shell coupled cluster)     Authors: C. Hampel, H.-J. Werner, 1991, M. Deegan, P.J. Knowles, 1992


 Convergence thresholds:  THRVAR = 1.00D-08  THRDEN = 1.00D-10

 CCSD(T)     terms to be evaluated (factor= 1.000)


 Number of core orbitals:           5 (   5 )
 Number of closed-shell orbitals:  15 (  15 )
 Number of active  orbitals:        1 (   1 )
 Number of external orbitals:      84 (  84 )

 Memory could be reduced to 24.91 Mwords without degradation in triples

 Number of N-1 electron functions:              31
 Number of N-2 electron functions:             465
 Number of singly external CSFs:              2635
 Number of doubly external CSFs:           2537250
 Total number of CSFs:                     2539885

 Molecular orbitals read from record     2100.2  Type=RHF/CANONICAL (state 1.1)

 Integral transformation finished. Total CPU:   1.55 sec, npass=  1  Memory used:  12.63 MW

 Starting RMP2 calculation

 ITER.      SQ.NORM     CORR.ENERGY   TOTAL ENERGY   ENERGY CHANGE        DEN1      VAR(S)    VAR(P)  DIIS     TIME
   1      1.24303086    -0.78637576  -268.05176764    -0.78637576    -0.00304987  0.20D-04  0.11D-02  1  1     2.01
   2      1.24567226    -0.78966484  -268.05505672    -0.00328908    -0.00000474  0.54D-06  0.19D-05  2  2     2.43
   3      1.24573778    -0.78970689  -268.05509877    -0.00004205    -0.00000003  0.16D-07  0.68D-08  3  3     2.90
   4      1.24573873    -0.78970689  -268.05509877    -0.00000000    -0.00000000  0.27D-09  0.38D-10  4  4     3.39
   5      1.24573881    -0.78970693  -268.05509881    -0.00000003    -0.00000000  0.25D-11  0.65D-12  5  5     3.93
   6      1.24573883    -0.78970693  -268.05509881    -0.00000001    -0.00000000  0.28D-13  0.86D-14  6  6     4.51
   7      1.24573883    -0.78970693  -268.05509881     0.00000000    -0.00000000  0.47D-15  0.12D-15  6  1     5.09
   8      1.24573883    -0.78970693  -268.05509881     0.00000000    -0.00000000  0.59D-17  0.13D-17  6  2     5.67

 Norm of t1 vector:      0.03891285      S-energy:    -0.00226990      T1 diagnostic:  0.00055009
 Norm of t2 vector:      0.49419087      P-energy:    -0.78743703
                                         Alpha-Beta:  -0.59341723
                                         Alpha-Alpha: -0.10093938
                                         Beta-Beta:   -0.09308042

 Spin contamination <S**2-Sz**2-Sz>     0.00103943
  Reference energy                   -267.265391878948
  RHF-RMP2 correlation energy          -0.789706932083
 !RHF-RMP2 energy                    -268.055098811031

 Starting UCCSD calculation

 ITER.      SQ.NORM     CORR.ENERGY   TOTAL ENERGY   ENERGY CHANGE        DEN1      VAR(S)    VAR(P)  DIIS     TIME
   1      1.26280441    -0.80904616  -268.07443803    -0.80904616    -0.02515691  0.38D-02  0.59D-02  1  1    15.43
   2      1.29157956    -0.83645623  -268.10184811    -0.02741008    -0.00201122  0.22D-03  0.66D-03  2  2    24.48
   3      1.30152094    -0.84095466  -268.10634654    -0.00449843    -0.00032463  0.19D-03  0.56D-04  3  3    31.19
   4      1.30643379    -0.84243185  -268.10782373    -0.00147719    -0.00007207  0.43D-04  0.14D-04  4  4    37.99
   5      1.30916288    -0.84281992  -268.10821180    -0.00038807    -0.00002366  0.19D-04  0.32D-05  5  5    47.16
   6      1.31110074    -0.84302431  -268.10841619    -0.00020439    -0.00000645  0.42D-05  0.12D-05  6  6    56.96
   7      1.31204900    -0.84308303  -268.10847491    -0.00005873    -0.00000208  0.14D-05  0.37D-06  6  2    66.73
   8      1.31248989    -0.84312568  -268.10851756    -0.00004264    -0.00000065  0.45D-06  0.11D-06  6  1    76.52
   9      1.31267476    -0.84313025  -268.10852213    -0.00000458    -0.00000022  0.15D-06  0.35D-07  6  4    86.43
  10      1.31273781    -0.84313318  -268.10852506    -0.00000293    -0.00000005  0.35D-07  0.95D-08  6  3    96.29
  11      1.31276730    -0.84313192  -268.10852380     0.00000126    -0.00000002  0.13D-07  0.28D-08  6  5   106.38
  12      1.31277767    -0.84313166  -268.10852354     0.00000026    -0.00000000  0.26D-08  0.95D-09  6  6   116.48
  13      1.31277653    -0.84313074  -268.10852262     0.00000092    -0.00000000  0.96D-09  0.28D-09  6  2   126.30
  14      1.31277132    -0.84312990  -268.10852178     0.00000084    -0.00000000  0.21D-09  0.67D-10  6  1   136.08
  15      1.31276724    -0.84312931  -268.10852119     0.00000059    -0.00000000  0.78D-10  0.19D-10  6  4   145.84
  16      1.31276406    -0.84312893  -268.10852081     0.00000038    -0.00000000  0.28D-10  0.63D-11  6  3   155.58
  17      1.31276186    -0.84312869  -268.10852057     0.00000024    -0.00000000  0.10D-10  0.24D-11  6  5   162.41
  18      1.31276096    -0.84312863  -268.10852051     0.00000006    -0.00000000  0.41D-11  0.87D-12  6  6   169.27
  19      1.31276035    -0.84312860  -268.10852048     0.00000003    -0.00000000  0.16D-11  0.37D-12  6  2   179.01
  20      1.31276003    -0.84312859  -268.10852046     0.00000001    -0.00000000  0.60D-12  0.13D-12  6  1   188.72
  21      1.31275987    -0.84312857  -268.10852045     0.00000001    -0.00000000  0.28D-12  0.58D-13  6  4   198.65
  22      1.31275975    -0.84312857  -268.10852045     0.00000001    -0.00000000  0.73D-13  0.21D-13  6  3   207.78
  23      1.31275969    -0.84312856  -268.10852044     0.00000000    -0.00000000  0.21D-13  0.62D-14  6  5   217.87
  24      1.31275969    -0.84312856  -268.10852044    -0.00000000    -0.00000000  0.67D-14  0.22D-14  6  6   227.98
  25      1.31275969    -0.84312857  -268.10852044    -0.00000000    -0.00000000  0.21D-14  0.52D-15  6  2   237.67
  26      1.31275970    -0.84312857  -268.10852045    -0.00000000    -0.00000000  0.77D-15  0.15D-15  6  1   246.75
  27      1.31275971    -0.84312857  -268.10852045    -0.00000000    -0.00000000  0.20D-15  0.62D-16  6  3   256.54
  28      1.31275971    -0.84312857  -268.10852045    -0.00000000    -0.00000000  0.30D-16  0.11D-16  6  4   266.45
  29      1.31275971    -0.84312857  -268.10852045    -0.00000000    -0.00000000  0.70D-17  0.29D-17  6  5   276.13
  30      1.31275972    -0.84312857  -268.10852045    -0.00000000    -0.00000000  0.15D-17  0.54D-18  6  6   285.84
  31      1.31275972    -0.84312857  -268.10852045    -0.00000000    -0.00000000  0.35D-18  0.10D-18  6  2   295.58

 Norm of t1 vector:      0.13869321      S-energy:    -0.00281893      T1 diagnostic:  0.01616791
                                                                       D1 diagnostic:  0.06283785
 Norm of t2 vector:      0.54177847      P-energy:    -0.84030964
                                         Alpha-Beta:  -0.66486644
                                         Alpha-Alpha: -0.09147188
                                         Beta-Beta:   -0.08397132

 Spin contamination <S**2-Sz**2-Sz>     0.00216832

 Memory could be reduced to 28.85 Mwords without degradation in triples
 

 RESULTS
 =======

  Reference energy                   -267.265391878948
  UCCSD singles energy                 -0.002818929222
  UCCSD pair energy                    -0.840309638303
  UCCSD correlation energy             -0.843128567526
  Triples (T) contribution             -0.024976288703
  Total correlation energy             -0.868104856229
 
  RHF-UCCSD energy                   -268.108520446474
  RHF-UCCSD[T] energy                -268.134832725075
  RHF-UCCSD-T energy                 -268.133075185372
 !RHF-UCCSD(T) energy                -268.133496735177

 Program statistics:

 Available memory in ccsd:               999997692
 Min. memory needed in ccsd:               7337057
 Max. memory used in ccsd:                10523002
 Max. memory used in cckext:              10867977 (31 integral passes)
 Max. memory used in cckint:              12633073 ( 1 integral passes)



 **********************************************************************************************************************************
 DATASETS  * FILE   NREC   LENGTH (MB)   RECORD NAMES
              1      18        3.17       500      610      700      900      950      970     1000      129      960     1100   
                                          VAR    BASINP    GEOM    SYMINP    ZMAT    AOBASIS   BASIS     P2S    ABASIS      S 
                                         1400     1410     1200     1210     1080     1600     1650     1700   
                                           T        V       H0       H01     AOSYM     SMH    MOLCAS    OPER   

              2       3        0.77       700     1000     2100   
                                         GEOM     BASIS     RHF  

 PROGRAMS   *        TOTAL  UCCSD(T)       RHF       INT
 CPU TIMES  *       360.85    356.99      1.95      1.79
 REAL TIME  *       374.20 SEC
 DISK USED  *         1.29 GB      
 SF USED    *       553.73 MB      
 GA USED    *         0.00 MB       (max)       0.00 MB       (current)
 **********************************************************************************************************************************

        UCCSD(T)        RHF-SCF 
   -268.13349674   -267.26539188
 **********************************************************************************************************************************
 Variable memory released
