
 Primary working directories    : /tmp/320938.198.gen4.q
 Secondary working directories  : /tmp/320938.198.gen4.q
 Wavefunction directory         : /home/vulcan/mel64643/wfu/
 Main file repository           : /tmp/320938.198.gen4.q/

 ARCHNAME  : Linux/x86_64
 FC        : /opt/intel/compilers_and_libraries_2016.1.150/linux/bin/intel64/ifort
 FCVERSION : 16.0.1
 BLASLIB   : -mkl
 id        : ccgc

 Nodes     nprocs
 n036         3
 Number of processes for MPI-2 version of Molpro:   nprocs(total)=    4   nprocs(compute)=    3   nprocs(helper)=    1
 ga_uses_ma=false, calling ma_init with nominal heap.
 GA-space will be limited to   8.0 MW (determined by -G option)

 Using customized tuning parameters: mindgm=10; mindgv=16; mindgc=4; mindgr=1; noblas=0; mincuda=1000; minvec=7
 default implementation of scratch files=sf  

 ***,Frequencies for min3
 memory,1000,m
 gthresh,energy=1.0d-10,orbital=1.0d-10,oneint=1.0d-16,twoint=1.0d-16,optgrad=1.0d-6,compress=1.0d-13
 geomtyp=xyz
 
  geometry = {
  12
  arbitrary comment
     C    1.776964391707    0.711398808326   -0.047331391796
     C    0.491811976407   -0.060647109602   -0.196481536427
     C    0.450429566951   -1.536073088709    0.101361921777
     O   -0.560831744173    0.727377799242    0.254491027979
     O   -1.837855674700    0.092339285033   -0.120537490634
     H    2.585354618981    0.211869519980   -0.611393614158
     H    1.660298320418    1.743218121938   -0.426424992950
     H    2.095047998384    0.774342734690    1.017718138712
     H   -0.504739799151   -1.984871544857   -0.220166558164
     H    1.281919688795   -2.046288039363   -0.417263127100
     H    0.561839608832   -1.718307956984    1.194663545402
     H   -1.987929639568    0.551902304065   -0.966933507451
  }
 
 basis=cc-pvdz
 {rhf;maxit,200}
 {uccsd(t);maxit,200}

 Variables initialized (661), CPU time= 0.00 sec
 Commands  initialized (458), CPU time= 0.01 sec, 486 directives.
 Default parameters read. Elapsed time= 0.07 sec

 Checking input...
 Passed
1


                                         ***  PROGRAM SYSTEM MOLPRO  ***
                         Copyright, University College Cardiff Consultants Limited, 2008

                                    Version 2010.1 linked May 16 2016 07:17:05


 **********************************************************************************************************************************
 LABEL *   Frequencies for min3                                                          
 Linux-4.4.3/n036(x86_64) 64 bit mpp version                                             DATE: 07-Mar-20          TIME: 02:07:35  
 **********************************************************************************************************************************

 SHA1:             9e8077add272b0f3cad6f7df79ec5211205f459d
 **********************************************************************************************************************************

 THRESHOLDS:

 ZERO    =  1.00D-12  ONEINT  =  1.00D-16  TWOINT  =  1.00D-16  PREFAC  =  1.00D-14  LOCALI  =  1.00D-09  EORDER  =  1.00D-04
 ENERGY  =  1.00D-10  ETEST   =  0.00D+00  EDENS   =  0.00D+00  THRDEDEF=  1.00D-06  GRADIENT=  1.00D-02  STEP    =  1.00D-03
 ORBITAL =  1.00D-10  CIVEC   =  1.00D-05  COEFF   =  1.00D-04  PRINTCI =  5.00D-02  PUNCHCI =  9.90D+01  OPTGRAD =  1.00D-06
 OPTENERG=  1.00D-06  OPTSTEP =  3.00D-04  THRGRAD =  1.00D-10  COMPRESS=  1.00D-13  VARMIN  =  1.00D-07  VARMAX  =  1.00D-03
 THRDOUB =  0.00D+00  THRDIV  =  1.00D-05  THRRED  =  1.00D-07  THRPSP  =  1.00D+00  THRDC   =  1.00D-10  THRCS   =  1.00D-10
 THRNRM  =  1.00D-08  THREQ   =  0.00D+00  THRDE   =  1.00D+00  THRREF  =  1.00D-05  SPARFAC =  1.00D+00  THRDLP  =  1.00D-07
 THRDIA  =  1.00D-10  THRDLS  =  1.00D-07  THRGPS  =  0.00D+00  THRKEX  =  0.00D+00  THRDIS  =  2.00D-01  THRVAR  =  1.00D-10
 THRLOC  =  1.00D-06  THRGAP  =  1.00D-06  THRLOCT = -1.00D+00  THRGAPT = -1.00D+00  THRORB  =  1.00D-06  THRMLTP =  0.00D+00
 THRCPQCI=  1.00D-10  KEXTA   =  0.00D+00  THRCOARS=  0.00D+00  SYMTOL  =  1.00D-06  GRADTOL =  1.00D-06  THROVL  =  1.00D-08
 THRORTH =  1.00D-08  GRID    =  1.00D-06  GRIDMAX =  1.00D-03  DTMAX   =  0.00D+00

 SETTING GEOMTYP        =    XYZ

 Variable memory set to 1000000000 words,  buffer space   230000 words

 SETTING BASIS          =    CC-PVDZ


 Recomputing integrals since basis changed


 Using spherical harmonics

 Library entry C      S cc-pVDZ              selected for orbital group  1
 Library entry C      P cc-pVDZ              selected for orbital group  1
 Library entry C      D cc-pVDZ              selected for orbital group  1
 Library entry O      S cc-pVDZ              selected for orbital group  2
 Library entry O      P cc-pVDZ              selected for orbital group  2
 Library entry O      D cc-pVDZ              selected for orbital group  2
 Library entry H      S cc-pVDZ              selected for orbital group  3
 Library entry H      P cc-pVDZ              selected for orbital group  3

1PROGRAM * SEWARD (Integral evaluation for generally contracted gaussian basis sets)     Author: Roland Lindh, 1990

 Geometry written to block  1 of record 700


 Point group  C1  



 ATOMIC COORDINATES

 NR  ATOM    CHARGE       X              Y              Z

   1  C       6.00    3.357976046    1.344348918   -0.089443368
   2  C       6.00    0.929389944   -0.114606428   -0.371296294
   3  C       6.00    0.851188523   -2.902757456    0.191546272
   4  O       8.00   -1.059818402    1.374544835    0.480918346
   5  O       8.00   -3.473043894    0.174495960   -0.227782846
   6  H       1.00    4.885612182    0.400375368   -1.155366489
   7  H       1.00    3.137509122    3.294204838   -0.805826452
   8  H       1.00    3.959066949    1.463295700    1.923208561
   9  H       1.00   -0.953819988   -3.750863626   -0.416054498
  10  H       1.00    2.422477134   -3.866923980   -0.788513035
  11  H       1.00    1.061722990   -3.247131448    2.257586920
  12  H       1.00   -3.756642587    1.042944206   -1.827239516

 Bond lengths in Bohr (Angstrom)

 1-2  2.847107695  1-6  2.088288852  1-7  2.088958711  1-8  2.103859881  2-3  2.845468919
     ( 1.506624504)     ( 1.105074866)     ( 1.105429340)     ( 1.113314700)     ( 1.505757301)

  2- 4  2.626935690   3- 9  2.084830568   3-10  2.087841285   3-11  2.105099087   4- 5  2.786760118
       ( 1.390114496)       ( 1.103244821)       ( 1.104838024)       ( 1.113970460)       ( 1.474689941)

  5-12  1.841980514
       ( 0.974734108)

 Bond angles

  1-2-3  120.39596585   1-2-4  108.86377917   2-1-6  109.98808237   2-1-7  110.75280818

  2- 1- 8  111.55449251   2- 3- 9  111.39224799   2- 3-10  109.81375567   2- 3-11  110.59007655

  2- 4- 5  109.21553384   3- 2- 4  118.06531193   4- 5-12   98.69207818   6- 1- 7  108.91048829

  6- 1- 8  107.74938900   7- 1- 8  107.78532620   9- 3-10  109.08156355   9- 3-11  107.82263627

 10- 3-11  108.05255460

 NUCLEAR CHARGE:                   41
 NUMBER OF PRIMITIVE AOS:         184
 NUMBER OF SYMMETRY AOS:          179
 NUMBER OF CONTRACTIONS:          105   ( 105A   )
 NUMBER OF CORE ORBITALS:           5   (   5A   )
 NUMBER OF VALENCE ORBITALS:       27   (  27A   )


 NUCLEAR REPULSION ENERGY  183.21655885


 Eigenvalues of metric

         1 0.345E-02 0.435E-02 0.105E-01 0.141E-01 0.182E-01 0.214E-01 0.331E-01 0.345E-01


 Contracted 2-electron integrals neglected if value below      1.0D-16
 AO integral compression algorithm  1   Integral accuracy      1.0D-16

     127.402 MB (compressed) written to integral file ( 93.4%)

     Node minimum: 41.157 MB, node maximum: 44.302 MB


 NUMBER OF SORTED TWO-ELECTRON INTEGRALS:    5164320.     BUFFER LENGTH:  32768
 NUMBER OF SEGMENTS:   1  SEGMENT LENGTH:    5164320      RECORD LENGTH: 524288

 Memory used in sort:       5.72 MW

 SORT1 READ    17075332. AND WROTE     5135906. INTEGRALS IN     15 RECORDS. CPU TIME:     0.23 SEC, REAL TIME:     0.27 SEC
 SORT2 READ    15396646. AND WROTE    15487395. INTEGRALS IN    471 RECORDS. CPU TIME:     0.08 SEC, REAL TIME:     0.12 SEC

 Node minimum:     5160610.  Node maximum:     5164320. integrals

 OPERATOR DM      FOR CENTER  0  COORDINATES:    0.000000    0.000000    0.000000


 **********************************************************************************************************************************
 DATASETS  * FILE   NREC   LENGTH (MB)   RECORD NAMES
              1      18        3.17       500      610      700      900      950      970     1000      129      960     1100   
                                          VAR    BASINP    GEOM    SYMINP    ZMAT    AOBASIS   BASIS     P2S    ABASIS      S 
                                         1400     1410     1200     1210     1080     1600     1650     1700   
                                           T        V       H0       H01     AOSYM     SMH    MOLCAS    OPER   

 PROGRAMS   *        TOTAL       INT
 CPU TIMES  *         1.30      1.21
 REAL TIME  *         1.58 SEC
 DISK USED  *       305.70 MB      
 GA USED    *         0.00 MB       (max)       0.00 MB       (current)
 **********************************************************************************************************************************

1PROGRAM * RHF-SCF (OPEN SHELL)       Authors: W. Meyer, H.-J. Werner


 NUMBER OF ELECTRONS:      21+   20-    SPACE SYMMETRY=1    SPIN SYMMETRY: Doublet 
 CONVERGENCE THRESHOLDS:    1.00E-10 (Density)    1.00E-11 (Energy)
 MAX. NUMBER OF ITERATIONS:      200
 INTERPOLATION TYPE:            DIIS
 INTERPOLATION STEPS:              2 (START)      1 (STEP)
 LEVEL SHIFTS:                 -0.30 (CLOSED)  0.00 (OPEN) 



 Orbital guess generated from atomic densities. Full valence occupancy:   32

 Molecular orbital dump at record        2100.2

 ITERATION    DDIFF          GRAD             ENERGY        2-EL.EN.            DIPOLE MOMENTS         DIIS
    1      0.000D+00      0.000D+00      -267.17825041    555.811267    0.56967    0.04853   -0.74924    0
    2      0.000D+00      0.617D-02      -267.24891068    555.730761    0.41451   -0.13177   -0.59893    1
    3      0.927D-02      0.214D-02      -267.26107806    555.649234    0.39444   -0.05973   -0.62613    2
    4      0.336D-02      0.912D-03      -267.26467865    555.801227    0.38000   -0.09985   -0.64246    3
    5      0.186D-02      0.363D-03      -267.26524574    555.772543    0.38260   -0.09333   -0.63539    4
    6      0.792D-03      0.110D-03      -267.26532170    555.758778    0.38089   -0.09313   -0.63811    5
    7      0.277D-03      0.510D-04      -267.26534170    555.755765    0.38019   -0.09287   -0.63759    6
    8      0.143D-03      0.272D-04      -267.26534773    555.753812    0.38047   -0.09299   -0.63780    7
    9      0.921D-04      0.115D-04      -267.26534864    555.754128    0.38066   -0.09294   -0.63755    8
   10      0.365D-04      0.500D-05      -267.26534880    555.754738    0.38092   -0.09296   -0.63762    9
   11      0.146D-04      0.196D-05      -267.26534883    555.754581    0.38097   -0.09295   -0.63763    9
   12      0.649D-05      0.670D-06      -267.26534883    555.754716    0.38099   -0.09295   -0.63762    9
   13      0.227D-05      0.226D-06      -267.26534883    555.754631    0.38099   -0.09295   -0.63762    9
   14      0.632D-06      0.758D-07      -267.26534883    555.754640    0.38099   -0.09295   -0.63762    9
   15      0.193D-06      0.301D-07      -267.26534883    555.754636    0.38099   -0.09295   -0.63762    9
   16      0.828D-07      0.146D-07      -267.26534883    555.754637    0.38099   -0.09295   -0.63762    9
   17      0.377D-07      0.755D-08      -267.26534883    555.754637    0.38099   -0.09295   -0.63762    9
   18      0.224D-07      0.343D-08      -267.26534883    555.754638    0.38099   -0.09295   -0.63762    9
   19      0.115D-07      0.133D-08      -267.26534883    555.754638    0.38099   -0.09295   -0.63762    9
   20      0.444D-08      0.567D-09      -267.26534883    555.754638    0.38099   -0.09295   -0.63762    9
   21      0.166D-08      0.287D-09      -267.26534883    555.754638    0.38099   -0.09295   -0.63762    9
   22      0.755D-09      0.162D-09      -267.26534883    555.754638    0.38099   -0.09295   -0.63762    9
   23      0.448D-09      0.798D-10      -267.26534883    555.754638    0.38099   -0.09295   -0.63762    9
   24      0.264D-09      0.317D-10      -267.26534883    555.754638    0.38099   -0.09295   -0.63762    9
   25      0.933D-10      0.129D-10      -267.26534883    555.754638    0.38099   -0.09295   -0.63762    0

 Final alpha occupancy:  21
 Final beta  occupancy:  20

 !RHF STATE 1.1 Energy               -267.265348829988
 Nuclear energy                       183.21655885
 One-electron energy                 -728.35922647
 Two-electron energy                  277.87731879
 Virial quotient                       -1.00156034
 !RHF STATE 1.1 Dipole moment           0.38099139    -0.09295414    -0.63761952
 Dipole moment /Debye                   0.96832010    -0.23625039    -1.62056102

 Orbital energies:

         1.1          2.1          3.1          4.1          5.1          6.1          7.1          8.1          9.1         10.1
    -20.630405   -20.628763   -11.279282   -11.237927   -11.232240    -1.469999    -1.240471    -1.023321    -0.945361    -0.768332

        11.1         12.1         13.1         14.1         15.1         16.1         17.1         18.1         19.1         20.1
     -0.704492    -0.642966    -0.626715    -0.588769    -0.545052    -0.543343    -0.539090    -0.516841    -0.492835    -0.469917

        21.1         22.1         23.1
     -0.352344     0.181251     0.183585


 **********************************************************************************************************************************
 DATASETS  * FILE   NREC   LENGTH (MB)   RECORD NAMES
              1      18        3.17       500      610      700      900      950      970     1000      129      960     1100   
                                          VAR    BASINP    GEOM    SYMINP    ZMAT    AOBASIS   BASIS     P2S    ABASIS      S 
                                         1400     1410     1200     1210     1080     1600     1650     1700   
                                           T        V       H0       H01     AOSYM     SMH    MOLCAS    OPER   

              2       3        0.77       700     1000     2100   
                                         GEOM     BASIS     RHF  

 PROGRAMS   *        TOTAL       RHF       INT
 CPU TIMES  *         2.72      1.42      1.21
 REAL TIME  *         3.17 SEC
 DISK USED  *       322.26 MB      
 SF USED    *         0.04 MB      
 GA USED    *         0.00 MB       (max)       0.00 MB       (current)
 **********************************************************************************************************************************


1PROGRAM * CCSD (Unrestricted open-shell coupled cluster)     Authors: C. Hampel, H.-J. Werner, 1991, M. Deegan, P.J. Knowles, 1992


 Convergence thresholds:  THRVAR = 1.00D-08  THRDEN = 1.00D-10

 CCSD(T)     terms to be evaluated (factor= 1.000)


 Number of core orbitals:           5 (   5 )
 Number of closed-shell orbitals:  15 (  15 )
 Number of active  orbitals:        1 (   1 )
 Number of external orbitals:      84 (  84 )

 Memory could be reduced to 24.91 Mwords without degradation in triples

 Number of N-1 electron functions:              31
 Number of N-2 electron functions:             465
 Number of singly external CSFs:              2635
 Number of doubly external CSFs:           2537250
 Total number of CSFs:                     2539885

 Molecular orbitals read from record     2100.2  Type=RHF/CANONICAL (state 1.1)

 Integral transformation finished. Total CPU:   1.59 sec, npass=  1  Memory used:  12.63 MW

 Starting RMP2 calculation

 ITER.      SQ.NORM     CORR.ENERGY   TOTAL ENERGY   ENERGY CHANGE        DEN1      VAR(S)    VAR(P)  DIIS     TIME
   1      1.24306212    -0.78641710  -268.05176593    -0.78641710    -0.00305047  0.20D-04  0.11D-02  1  1     2.08
   2      1.24570432    -0.78970684  -268.05505567    -0.00328974    -0.00000474  0.54D-06  0.19D-05  2  2     2.50
   3      1.24576989    -0.78974892  -268.05509775    -0.00004207    -0.00000003  0.16D-07  0.68D-08  3  3     2.95
   4      1.24577084    -0.78974892  -268.05509775    -0.00000000    -0.00000000  0.27D-09  0.38D-10  4  4     3.43
   5      1.24577092    -0.78974895  -268.05509778    -0.00000003    -0.00000000  0.25D-11  0.65D-12  5  5     3.94
   6      1.24577093    -0.78974896  -268.05509779    -0.00000001    -0.00000000  0.28D-13  0.87D-14  6  6     4.48
   7      1.24577094    -0.78974896  -268.05509779     0.00000000    -0.00000000  0.47D-15  0.12D-15  6  1     5.03
   8      1.24577094    -0.78974896  -268.05509779     0.00000000    -0.00000000  0.60D-17  0.13D-17  6  2     5.57

 Norm of t1 vector:      0.03893343      S-energy:    -0.00227177      T1 diagnostic:  0.00055025
 Norm of t2 vector:      0.49422173      P-energy:    -0.78747719
                                         Alpha-Beta:  -0.59344932
                                         Alpha-Alpha: -0.10094450
                                         Beta-Beta:   -0.09308336

 Spin contamination <S**2-Sz**2-Sz>     0.00104017
  Reference energy                   -267.265348829989
  RHF-RMP2 correlation energy          -0.789748955942
 !RHF-RMP2 energy                    -268.055097785931

 Starting UCCSD calculation

 ITER.      SQ.NORM     CORR.ENERGY   TOTAL ENERGY   ENERGY CHANGE        DEN1      VAR(S)    VAR(P)  DIIS     TIME
   1      1.26283279    -0.80907916  -268.07442799    -0.80907916    -0.02516161  0.38D-02  0.59D-02  1  1    15.29
   2      1.29161502    -0.83649370  -268.10184253    -0.02741455    -0.00201213  0.22D-03  0.66D-03  2  2    25.02
   3      1.30155999    -0.84099380  -268.10634263    -0.00450010    -0.00032470  0.19D-03  0.56D-04  3  3    34.68
   4      1.30647359    -0.84247152  -268.10782035    -0.00147771    -0.00007204  0.43D-04  0.14D-04  4  4    43.36
   5      1.30920099    -0.84285946  -268.10820829    -0.00038794    -0.00002364  0.19D-04  0.32D-05  5  5    51.56
   6      1.31113656    -0.84306368  -268.10841251    -0.00020422    -0.00000644  0.42D-05  0.12D-05  6  6    59.80
   7      1.31208328    -0.84312232  -268.10847115    -0.00005864    -0.00000207  0.14D-05  0.37D-06  6  2    68.03
   8      1.31252331    -0.84316492  -268.10851375    -0.00004260    -0.00000065  0.44D-06  0.11D-06  6  1    77.84
   9      1.31270748    -0.84316947  -268.10851830    -0.00000455    -0.00000022  0.15D-06  0.35D-07  6  4    87.62
  10      1.31277033    -0.84317240  -268.10852123    -0.00000293    -0.00000005  0.35D-07  0.95D-08  6  3    97.39
  11      1.31279967    -0.84317112  -268.10851995     0.00000127    -0.00000002  0.13D-07  0.28D-08  6  5   107.07
  12      1.31280997    -0.84317086  -268.10851969     0.00000027    -0.00000000  0.26D-08  0.95D-09  6  6   116.78
  13      1.31280882    -0.84316994  -268.10851877     0.00000091    -0.00000000  0.96D-09  0.28D-09  6  2   126.52
  14      1.31280363    -0.84316910  -268.10851793     0.00000084    -0.00000000  0.21D-09  0.67D-10  6  1   136.29
  15      1.31279957    -0.84316852  -268.10851735     0.00000058    -0.00000000  0.78D-10  0.19D-10  6  4   144.96
  16      1.31279639    -0.84316813  -268.10851696     0.00000038    -0.00000000  0.28D-10  0.62D-11  6  3   153.16
  17      1.31279420    -0.84316790  -268.10851673     0.00000024    -0.00000000  0.10D-10  0.24D-11  6  5   161.38
  18      1.31279330    -0.84316784  -268.10851667     0.00000006    -0.00000000  0.40D-11  0.86D-12  6  6   169.98
  19      1.31279269    -0.84316780  -268.10851663     0.00000003    -0.00000000  0.16D-11  0.37D-12  6  2   179.86
  20      1.31279237    -0.84316779  -268.10851662     0.00000001    -0.00000000  0.59D-12  0.13D-12  6  1   189.59
  21      1.31279221    -0.84316778  -268.10851661     0.00000001    -0.00000000  0.28D-12  0.57D-13  6  4   199.39
  22      1.31279209    -0.84316777  -268.10851660     0.00000001    -0.00000000  0.73D-13  0.21D-13  6  3   209.20
  23      1.31279203    -0.84316777  -268.10851660     0.00000000    -0.00000000  0.21D-13  0.62D-14  6  5   218.98
  24      1.31279203    -0.84316777  -268.10851660    -0.00000000    -0.00000000  0.67D-14  0.22D-14  6  6   228.70
  25      1.31279203    -0.84316777  -268.10851660    -0.00000000    -0.00000000  0.21D-14  0.52D-15  6  2   238.41
  26      1.31279204    -0.84316777  -268.10851660    -0.00000000    -0.00000000  0.76D-15  0.15D-15  6  1   248.20
  27      1.31279205    -0.84316777  -268.10851660    -0.00000000    -0.00000000  0.20D-15  0.62D-16  6  3   257.98
  28      1.31279205    -0.84316777  -268.10851660    -0.00000000    -0.00000000  0.29D-16  0.11D-16  6  4   267.69
  29      1.31279205    -0.84316777  -268.10851660    -0.00000000    -0.00000000  0.70D-17  0.29D-17  6  5   277.51
  30      1.31279206    -0.84316777  -268.10851660    -0.00000000    -0.00000000  0.15D-17  0.53D-18  6  6   287.39
  31      1.31279206    -0.84316777  -268.10851660    -0.00000000    -0.00000000  0.35D-18  0.10D-18  6  2   297.27

 Norm of t1 vector:      0.13868393      S-energy:    -0.00282124      T1 diagnostic:  0.01616566
                                                                       D1 diagnostic:  0.06282902
 Norm of t2 vector:      0.54181069      P-energy:    -0.84034653
                                         Alpha-Beta:  -0.66490234
                                         Alpha-Alpha: -0.09147331
                                         Beta-Beta:   -0.08397089

 Spin contamination <S**2-Sz**2-Sz>     0.00216607

 Memory could be reduced to 28.85 Mwords without degradation in triples
 

 RESULTS
 =======

  Reference energy                   -267.265348829989
  UCCSD singles energy                 -0.002821239124
  UCCSD pair energy                    -0.840346534776
  UCCSD correlation energy             -0.843167773900
  Triples (T) contribution             -0.024979404078
  Total correlation energy             -0.868147177978
 
  RHF-UCCSD energy                   -268.108516603888
  RHF-UCCSD[T] energy                -268.134832373511
  RHF-UCCSD-T energy                 -268.133074135312
 !RHF-UCCSD(T) energy                -268.133496007967

 Program statistics:

 Available memory in ccsd:               999997692
 Min. memory needed in ccsd:               7337057
 Max. memory used in ccsd:                10523002
 Max. memory used in cckext:              10867977 (31 integral passes)
 Max. memory used in cckint:              12633073 ( 1 integral passes)



 **********************************************************************************************************************************
 DATASETS  * FILE   NREC   LENGTH (MB)   RECORD NAMES
              1      18        3.17       500      610      700      900      950      970     1000      129      960     1100   
                                          VAR    BASINP    GEOM    SYMINP    ZMAT    AOBASIS   BASIS     P2S    ABASIS      S 
                                         1400     1410     1200     1210     1080     1600     1650     1700   
                                           T        V       H0       H01     AOSYM     SMH    MOLCAS    OPER   

              2       3        0.77       700     1000     2100   
                                         GEOM     BASIS     RHF  

 PROGRAMS   *        TOTAL  UCCSD(T)       RHF       INT
 CPU TIMES  *       378.38    375.66      1.42      1.21
 REAL TIME  *       391.76 SEC
 DISK USED  *         1.29 GB      
 SF USED    *       553.73 MB      
 GA USED    *         0.00 MB       (max)       0.00 MB       (current)
 **********************************************************************************************************************************

        UCCSD(T)        RHF-SCF 
   -268.13349601   -267.26534883
 **********************************************************************************************************************************
 Variable memory released
