
 Primary working directories    : /tmp/320938.909.gen6.q
 Secondary working directories  : /tmp/320938.909.gen6.q
 Wavefunction directory         : /home/vulcan/mel64643/wfu/
 Main file repository           : /tmp/320938.909.gen6.q/

 ARCHNAME  : Linux/x86_64
 FC        : /opt/intel/compilers_and_libraries_2016.1.150/linux/bin/intel64/ifort
 FCVERSION : 16.0.1
 BLASLIB   : -mkl
 id        : ccgc

 Nodes     nprocs
 n090         3
 Number of processes for MPI-2 version of Molpro:   nprocs(total)=    4   nprocs(compute)=    3   nprocs(helper)=    1
 ga_uses_ma=false, calling ma_init with nominal heap.
 GA-space will be limited to   8.0 MW (determined by -G option)

 Using customized tuning parameters: mindgm=10; mindgv=16; mindgc=4; mindgr=1; noblas=0; mincuda=1000; minvec=7
 default implementation of scratch files=sf  

 ***,Frequencies for min3
 memory,1000,m
 gthresh,energy=1.0d-10,orbital=1.0d-10,oneint=1.0d-16,twoint=1.0d-16,optgrad=1.0d-6,compress=1.0d-13
 geomtyp=xyz
 
  geometry = {
  12
  arbitrary comment
     C    1.776964391707    0.711398808326   -0.047331391796
     C    0.491811976407   -0.059992870174   -0.196493901896
     C    0.450332819107   -1.536294019674    0.101417522804
     O   -0.560767745493    0.727234937526    0.254453964104
     O   -1.837840335593    0.092269037726   -0.120531795196
     H    2.585373063107    0.211465914126   -0.613628037954
     H    1.660513453546    1.742933440314   -0.425732172081
     H    2.094816632239    0.774030519881    1.018526884442
     H   -0.504769137714   -1.982784140873   -0.220088284339
     H    1.282053756377   -2.047411207303   -0.414922844782
     H    0.562001565706   -1.719380644250    1.193282516805
     H   -1.988305724811    0.551234122786   -0.967255136360
  }
 
 basis=cc-pvdz
 {rhf;maxit,200}
 {uccsd(t);maxit,200}

 Variables initialized (661), CPU time= 0.00 sec
 Commands  initialized (458), CPU time= 0.01 sec, 486 directives.
 Default parameters read. Elapsed time= 0.06 sec

 Checking input...
 Passed
1


                                         ***  PROGRAM SYSTEM MOLPRO  ***
                         Copyright, University College Cardiff Consultants Limited, 2008

                                    Version 2010.1 linked May 16 2016 07:17:05


 **********************************************************************************************************************************
 LABEL *   Frequencies for min3                                                          
 Linux-4.4.3/n090(x86_64) 64 bit mpp version                                             DATE: 07-Mar-20          TIME: 06:19:05  
 **********************************************************************************************************************************

 SHA1:             9e8077add272b0f3cad6f7df79ec5211205f459d
 **********************************************************************************************************************************

 THRESHOLDS:

 ZERO    =  1.00D-12  ONEINT  =  1.00D-16  TWOINT  =  1.00D-16  PREFAC  =  1.00D-14  LOCALI  =  1.00D-09  EORDER  =  1.00D-04
 ENERGY  =  1.00D-10  ETEST   =  0.00D+00  EDENS   =  0.00D+00  THRDEDEF=  1.00D-06  GRADIENT=  1.00D-02  STEP    =  1.00D-03
 ORBITAL =  1.00D-10  CIVEC   =  1.00D-05  COEFF   =  1.00D-04  PRINTCI =  5.00D-02  PUNCHCI =  9.90D+01  OPTGRAD =  1.00D-06
 OPTENERG=  1.00D-06  OPTSTEP =  3.00D-04  THRGRAD =  1.00D-10  COMPRESS=  1.00D-13  VARMIN  =  1.00D-07  VARMAX  =  1.00D-03
 THRDOUB =  0.00D+00  THRDIV  =  1.00D-05  THRRED  =  1.00D-07  THRPSP  =  1.00D+00  THRDC   =  1.00D-10  THRCS   =  1.00D-10
 THRNRM  =  1.00D-08  THREQ   =  0.00D+00  THRDE   =  1.00D+00  THRREF  =  1.00D-05  SPARFAC =  1.00D+00  THRDLP  =  1.00D-07
 THRDIA  =  1.00D-10  THRDLS  =  1.00D-07  THRGPS  =  0.00D+00  THRKEX  =  0.00D+00  THRDIS  =  2.00D-01  THRVAR  =  1.00D-10
 THRLOC  =  1.00D-06  THRGAP  =  1.00D-06  THRLOCT = -1.00D+00  THRGAPT = -1.00D+00  THRORB  =  1.00D-06  THRMLTP =  0.00D+00
 THRCPQCI=  1.00D-10  KEXTA   =  0.00D+00  THRCOARS=  0.00D+00  SYMTOL  =  1.00D-06  GRADTOL =  1.00D-06  THROVL  =  1.00D-08
 THRORTH =  1.00D-08  GRID    =  1.00D-06  GRIDMAX =  1.00D-03  DTMAX   =  0.00D+00

 SETTING GEOMTYP        =    XYZ

 Variable memory set to 1000000000 words,  buffer space   230000 words

 SETTING BASIS          =    CC-PVDZ


 Recomputing integrals since basis changed


 Using spherical harmonics

 Library entry C      S cc-pVDZ              selected for orbital group  1
 Library entry C      P cc-pVDZ              selected for orbital group  1
 Library entry C      D cc-pVDZ              selected for orbital group  1
 Library entry O      S cc-pVDZ              selected for orbital group  2
 Library entry O      P cc-pVDZ              selected for orbital group  2
 Library entry O      D cc-pVDZ              selected for orbital group  2
 Library entry H      S cc-pVDZ              selected for orbital group  3
 Library entry H      P cc-pVDZ              selected for orbital group  3

1PROGRAM * SEWARD (Integral evaluation for generally contracted gaussian basis sets)     Author: Roland Lindh, 1990

 Geometry written to block  1 of record 700


 Point group  C1  



 ATOMIC COORDINATES

 NR  ATOM    CHARGE       X              Y              Z

   1  C       6.00    3.357976046    1.344348918   -0.089443368
   2  C       6.00    0.929389944   -0.113370094   -0.371319661
   3  C       6.00    0.851005696   -2.903174955    0.191651343
   4  O       8.00   -1.059697462    1.374274865    0.480848305
   5  O       8.00   -3.473014908    0.174363212   -0.227772083
   6  H       1.00    4.885647037    0.399612664   -1.159588938
   7  H       1.00    3.137915665    3.293666867   -0.804517211
   8  H       1.00    3.958629730    1.462705700    1.924736869
   9  H       1.00   -0.953875430   -3.746919004   -0.415906582
  10  H       1.00    2.422730485   -3.869046460   -0.784090542
  11  H       1.00    1.062029045   -3.249158533    2.254977154
  12  H       1.00   -3.757353285    1.041681526   -1.827847307

 Bond lengths in Bohr (Angstrom)

 1-2  2.846476668  1-6  2.090817254  1-7  2.087964952  1-8  2.105163938  2-3  2.847119878
     ( 1.506290578)     ( 1.106412839)     ( 1.104903466)     ( 1.114004777)     ( 1.506630951)

  2- 4  2.625975338   3- 9  2.082936997   3-10  2.086935266   3-11  2.102747939   4- 5  2.786760112
       ( 1.389606300)       ( 1.102242786)       ( 1.104358580)       ( 1.112726285)       ( 1.474689938)

  5-12  1.842099371
       ( 0.974797004)

 Bond angles

  1-2-3  120.37866573   1-2-4  108.90555081   2-1-6  109.95648313   2-1-7  110.74883040

  2- 1- 8  111.52913175   2- 3- 9  111.29070195   2- 3-10  109.89618830   2- 3-11  110.63968932

  2- 4- 5  109.23946113   3- 2- 4  118.03986083   4- 5-12   98.73210847   6- 1- 7  108.87862931

  6- 1- 8  107.85686868   7- 1- 8  107.77352962   9- 3-10  109.19218354   9- 3-11  107.84985522

 10- 3-11  107.88153877

 NUCLEAR CHARGE:                   41
 NUMBER OF PRIMITIVE AOS:         184
 NUMBER OF SYMMETRY AOS:          179
 NUMBER OF CONTRACTIONS:          105   ( 105A   )
 NUMBER OF CORE ORBITALS:           5   (   5A   )
 NUMBER OF VALENCE ORBITALS:       27   (  27A   )


 NUCLEAR REPULSION ENERGY  183.22250341


 Eigenvalues of metric

         1 0.345E-02 0.435E-02 0.105E-01 0.141E-01 0.182E-01 0.214E-01 0.331E-01 0.346E-01


 Contracted 2-electron integrals neglected if value below      1.0D-16
 AO integral compression algorithm  1   Integral accuracy      1.0D-16

     127.402 MB (compressed) written to integral file ( 93.4%)

     Node minimum: 41.681 MB, node maximum: 43.778 MB


 NUMBER OF SORTED TWO-ELECTRON INTEGRALS:    5164320.     BUFFER LENGTH:  32768
 NUMBER OF SEGMENTS:   1  SEGMENT LENGTH:    5164320      RECORD LENGTH: 524288

 Memory used in sort:       5.72 MW

 SORT1 READ    17075251. AND WROTE     5135883. INTEGRALS IN     15 RECORDS. CPU TIME:     0.19 SEC, REAL TIME:     0.22 SEC
 SORT2 READ    15396553. AND WROTE    15487395. INTEGRALS IN    477 RECORDS. CPU TIME:     0.06 SEC, REAL TIME:     0.10 SEC

 Node minimum:     5160610.  Node maximum:     5164320. integrals

 OPERATOR DM      FOR CENTER  0  COORDINATES:    0.000000    0.000000    0.000000


 **********************************************************************************************************************************
 DATASETS  * FILE   NREC   LENGTH (MB)   RECORD NAMES
              1      18        3.17       500      610      700      900      950      970     1000      129      960     1100   
                                          VAR    BASINP    GEOM    SYMINP    ZMAT    AOBASIS   BASIS     P2S    ABASIS      S 
                                         1400     1410     1200     1210     1080     1600     1650     1700   
                                           T        V       H0       H01     AOSYM     SMH    MOLCAS    OPER   

 PROGRAMS   *        TOTAL       INT
 CPU TIMES  *         0.82      0.76
 REAL TIME  *         1.25 SEC
 DISK USED  *       305.17 MB      
 GA USED    *         0.00 MB       (max)       0.00 MB       (current)
 **********************************************************************************************************************************

1PROGRAM * RHF-SCF (OPEN SHELL)       Authors: W. Meyer, H.-J. Werner


 NUMBER OF ELECTRONS:      21+   20-    SPACE SYMMETRY=1    SPIN SYMMETRY: Doublet 
 CONVERGENCE THRESHOLDS:    1.00E-10 (Density)    1.00E-11 (Energy)
 MAX. NUMBER OF ITERATIONS:      200
 INTERPOLATION TYPE:            DIIS
 INTERPOLATION STEPS:              2 (START)      1 (STEP)
 LEVEL SHIFTS:                 -0.30 (CLOSED)  0.00 (OPEN) 



 Orbital guess generated from atomic densities. Full valence occupancy:   32

 Molecular orbital dump at record        2100.2

 ITERATION    DDIFF          GRAD             ENERGY        2-EL.EN.            DIPOLE MOMENTS         DIIS
    1      0.000D+00      0.000D+00      -267.17823282    555.820672    0.57037    0.05004   -0.74961    0
    2      0.000D+00      0.617D-02      -267.24891883    555.740698    0.41388   -0.13092   -0.59872    1
    3      0.927D-02      0.214D-02      -267.26109547    555.658993    0.39356   -0.05904   -0.62597    2
    4      0.336D-02      0.912D-03      -267.26470338    555.811093    0.37891   -0.09923   -0.64229    3
    5      0.186D-02      0.364D-03      -267.26527252    555.782436    0.38143   -0.09276   -0.63523    4
    6      0.792D-03      0.110D-03      -267.26534895    555.768684    0.37969   -0.09256   -0.63796    5
    7      0.277D-03      0.511D-04      -267.26536910    555.765671    0.37898   -0.09231   -0.63745    6
    8      0.144D-03      0.273D-04      -267.26537516    555.763725    0.37925   -0.09243   -0.63766    7
    9      0.924D-04      0.115D-04      -267.26537607    555.764038    0.37943   -0.09239   -0.63742    8
   10      0.366D-04      0.501D-05      -267.26537623    555.764651    0.37969   -0.09240   -0.63749    9
   11      0.147D-04      0.196D-05      -267.26537626    555.764493    0.37974   -0.09239   -0.63749    9
   12      0.651D-05      0.671D-06      -267.26537626    555.764628    0.37976   -0.09239   -0.63749    9
   13      0.227D-05      0.226D-06      -267.26537626    555.764543    0.37977   -0.09240   -0.63748    9
   14      0.632D-06      0.759D-07      -267.26537626    555.764552    0.37977   -0.09240   -0.63749    9
   15      0.193D-06      0.301D-07      -267.26537626    555.764548    0.37977   -0.09240   -0.63748    9
   16      0.827D-07      0.146D-07      -267.26537626    555.764549    0.37977   -0.09240   -0.63748    9
   17      0.376D-07      0.753D-08      -267.26537626    555.764549    0.37977   -0.09240   -0.63748    9
   18      0.223D-07      0.343D-08      -267.26537626    555.764550    0.37977   -0.09240   -0.63748    9
   19      0.115D-07      0.133D-08      -267.26537626    555.764550    0.37977   -0.09240   -0.63748    9
   20      0.444D-08      0.568D-09      -267.26537626    555.764550    0.37977   -0.09240   -0.63748    9
   21      0.166D-08      0.287D-09      -267.26537626    555.764550    0.37977   -0.09240   -0.63748    9
   22      0.756D-09      0.162D-09      -267.26537626    555.764550    0.37977   -0.09240   -0.63748    9
   23      0.447D-09      0.798D-10      -267.26537626    555.764550    0.37977   -0.09240   -0.63748    9
   24      0.264D-09      0.317D-10      -267.26537626    555.764550    0.37977   -0.09240   -0.63748    9
   25      0.934D-10      0.129D-10      -267.26537626    555.764550    0.37977   -0.09240   -0.63748    0

 Final alpha occupancy:  21
 Final beta  occupancy:  20

 !RHF STATE 1.1 Energy               -267.265376261463
 Nuclear energy                       183.22250341
 One-electron energy                 -728.37015447
 Two-electron energy                  277.88227480
 Virial quotient                       -1.00155494
 !RHF STATE 1.1 Dipole moment           0.37976853    -0.09239692    -0.63748478
 Dipole moment /Debye                   0.96521209    -0.23483417    -1.62021857

 Orbital energies:

         1.1          2.1          3.1          4.1          5.1          6.1          7.1          8.1          9.1         10.1
    -20.630462   -20.628844   -11.279251   -11.238054   -11.231930    -1.470111    -1.240645    -1.023218    -0.945368    -0.768435

        11.1         12.1         13.1         14.1         15.1         16.1         17.1         18.1         19.1         20.1
     -0.704556    -0.643022    -0.626763    -0.588669    -0.545212    -0.543447    -0.538990    -0.516965    -0.492947    -0.469771

        21.1         22.1         23.1
     -0.352285     0.181273     0.183475


 **********************************************************************************************************************************
 DATASETS  * FILE   NREC   LENGTH (MB)   RECORD NAMES
              1      18        3.17       500      610      700      900      950      970     1000      129      960     1100   
                                          VAR    BASINP    GEOM    SYMINP    ZMAT    AOBASIS   BASIS     P2S    ABASIS      S 
                                         1400     1410     1200     1210     1080     1600     1650     1700   
                                           T        V       H0       H01     AOSYM     SMH    MOLCAS    OPER   

              2       3        0.77       700     1000     2100   
                                         GEOM     BASIS     RHF  

 PROGRAMS   *        TOTAL       RHF       INT
 CPU TIMES  *         1.77      0.95      0.76
 REAL TIME  *         2.33 SEC
 DISK USED  *       321.74 MB      
 SF USED    *         0.04 MB      
 GA USED    *         0.00 MB       (max)       0.00 MB       (current)
 **********************************************************************************************************************************


1PROGRAM * CCSD (Unrestricted open-shell coupled cluster)     Authors: C. Hampel, H.-J. Werner, 1991, M. Deegan, P.J. Knowles, 1992


 Convergence thresholds:  THRVAR = 1.00D-08  THRDEN = 1.00D-10

 CCSD(T)     terms to be evaluated (factor= 1.000)


 Number of core orbitals:           5 (   5 )
 Number of closed-shell orbitals:  15 (  15 )
 Number of active  orbitals:        1 (   1 )
 Number of external orbitals:      84 (  84 )

 Memory could be reduced to 24.91 Mwords without degradation in triples

 Number of N-1 electron functions:              31
 Number of N-2 electron functions:             465
 Number of singly external CSFs:              2635
 Number of doubly external CSFs:           2537250
 Total number of CSFs:                     2539885

 Molecular orbitals read from record     2100.2  Type=RHF/CANONICAL (state 1.1)

 Integral transformation finished. Total CPU:   0.71 sec, npass=  1  Memory used:  12.63 MW

 Starting RMP2 calculation

 ITER.      SQ.NORM     CORR.ENERGY   TOTAL ENERGY   ENERGY CHANGE        DEN1      VAR(S)    VAR(P)  DIIS     TIME
   1      1.24303703    -0.78639040  -268.05176666    -0.78639040    -0.00304991  0.20D-04  0.11D-02  1  1     0.97
   2      1.24567850    -0.78967952  -268.05505578    -0.00328912    -0.00000474  0.54D-06  0.19D-05  2  2     1.21
   3      1.24574404    -0.78972157  -268.05509783    -0.00004206    -0.00000003  0.16D-07  0.68D-08  3  3     1.47
   4      1.24574499    -0.78972157  -268.05509784    -0.00000000    -0.00000000  0.27D-09  0.38D-10  4  4     1.76
   5      1.24574507    -0.78972161  -268.05509787    -0.00000003    -0.00000000  0.25D-11  0.65D-12  5  5     2.07
   6      1.24574509    -0.78972161  -268.05509787    -0.00000001    -0.00000000  0.28D-13  0.86D-14  6  6     2.40
   7      1.24574509    -0.78972161  -268.05509787     0.00000000    -0.00000000  0.47D-15  0.12D-15  6  1     2.73
   8      1.24574509    -0.78972161  -268.05509787     0.00000000    -0.00000000  0.60D-17  0.13D-17  6  2     3.06

 Norm of t1 vector:      0.03892818      S-energy:    -0.00227134      T1 diagnostic:  0.00055015
 Norm of t2 vector:      0.49419600      P-energy:    -0.78745027
                                         Alpha-Beta:  -0.59342628
                                         Alpha-Alpha: -0.10094282
                                         Beta-Beta:   -0.09308117

 Spin contamination <S**2-Sz**2-Sz>     0.00104006
  Reference energy                   -267.265376261461
  RHF-RMP2 correlation energy          -0.789721613137
 !RHF-RMP2 energy                    -268.055097874598

 Starting UCCSD calculation

 ITER.      SQ.NORM     CORR.ENERGY   TOTAL ENERGY   ENERGY CHANGE        DEN1      VAR(S)    VAR(P)  DIIS     TIME
   1      1.26280808    -0.80905774  -268.07443400    -0.80905774    -0.02515743  0.38D-02  0.59D-02  1  1     7.81
   2      1.29158386    -0.83646825  -268.10184451    -0.02741052    -0.00201137  0.22D-03  0.66D-03  2  2    12.56
   3      1.30152596    -0.84096686  -268.10634312    -0.00449861    -0.00032466  0.19D-03  0.56D-04  3  3    17.35
   4      1.30643961    -0.84244418  -268.10782044    -0.00147732    -0.00007209  0.43D-04  0.14D-04  4  4    23.62
   5      1.30916933    -0.84283231  -268.10820857    -0.00038812    -0.00002367  0.19D-04  0.32D-05  5  5    29.93
   6      1.31110827    -0.84303676  -268.10841303    -0.00020446    -0.00000646  0.42D-05  0.12D-05  6  6    36.37
   7      1.31205778    -0.84309556  -268.10847182    -0.00005879    -0.00000208  0.14D-05  0.37D-06  6  2    42.77
   8      1.31249964    -0.84313826  -268.10851452    -0.00004270    -0.00000065  0.45D-06  0.11D-06  6  1    49.15
   9      1.31268499    -0.84314285  -268.10851911    -0.00000459    -0.00000022  0.15D-06  0.35D-07  6  4    55.57
  10      1.31274820    -0.84314578  -268.10852204    -0.00000293    -0.00000005  0.35D-07  0.95D-08  6  3    61.50
  11      1.31277772    -0.84314452  -268.10852078     0.00000126    -0.00000002  0.13D-07  0.28D-08  6  5    67.29
  12      1.31278811    -0.84314426  -268.10852052     0.00000026    -0.00000000  0.26D-08  0.95D-09  6  6    73.09
  13      1.31278697    -0.84314334  -268.10851960     0.00000092    -0.00000000  0.96D-09  0.29D-09  6  2    78.87
  14      1.31278176    -0.84314250  -268.10851876     0.00000084    -0.00000000  0.21D-09  0.68D-10  6  1    84.65
  15      1.31277769    -0.84314191  -268.10851817     0.00000059    -0.00000000  0.78D-10  0.19D-10  6  4    90.42
  16      1.31277450    -0.84314153  -268.10851779     0.00000038    -0.00000000  0.28D-10  0.63D-11  6  3    96.18
  17      1.31277230    -0.84314129  -268.10851755     0.00000024    -0.00000000  0.10D-10  0.24D-11  6  5   101.72
  18      1.31277139    -0.84314123  -268.10851749     0.00000006    -0.00000000  0.41D-11  0.87D-12  6  6   107.47
  19      1.31277078    -0.84314119  -268.10851746     0.00000003    -0.00000000  0.16D-11  0.37D-12  6  2   113.21
  20      1.31277046    -0.84314118  -268.10851744     0.00000001    -0.00000000  0.60D-12  0.13D-12  6  1   118.84
  21      1.31277030    -0.84314117  -268.10851743     0.00000001    -0.00000000  0.28D-12  0.58D-13  6  4   124.59
  22      1.31277018    -0.84314116  -268.10851742     0.00000001    -0.00000000  0.74D-13  0.21D-13  6  3   130.37
  23      1.31277012    -0.84314116  -268.10851742     0.00000000    -0.00000000  0.21D-13  0.63D-14  6  5   136.06
  24      1.31277011    -0.84314116  -268.10851742    -0.00000000    -0.00000000  0.67D-14  0.23D-14  6  6   140.91
  25      1.31277012    -0.84314116  -268.10851742    -0.00000000    -0.00000000  0.21D-14  0.52D-15  6  2   145.75
  26      1.31277013    -0.84314116  -268.10851742    -0.00000000    -0.00000000  0.77D-15  0.15D-15  6  1   150.61
  27      1.31277014    -0.84314116  -268.10851743    -0.00000000    -0.00000000  0.20D-15  0.63D-16  6  3   155.44
  28      1.31277014    -0.84314116  -268.10851743    -0.00000000    -0.00000000  0.30D-16  0.11D-16  6  4   160.29
  29      1.31277014    -0.84314116  -268.10851743    -0.00000000    -0.00000000  0.71D-17  0.29D-17  6  5   165.12
  30      1.31277014    -0.84314116  -268.10851743    -0.00000000    -0.00000000  0.15D-17  0.54D-18  6  6   169.97
  31      1.31277014    -0.84314116  -268.10851743    -0.00000000    -0.00000000  0.35D-18  0.10D-18  6  2   174.99

 Norm of t1 vector:      0.13871480      S-energy:    -0.00282084      T1 diagnostic:  0.01616922
                                                                       D1 diagnostic:  0.06281597
 Norm of t2 vector:      0.54178256      P-energy:    -0.84032033
                                         Alpha-Beta:  -0.66487498
                                         Alpha-Alpha: -0.09147441
                                         Beta-Beta:   -0.08397093

 Spin contamination <S**2-Sz**2-Sz>     0.00217154

 Memory could be reduced to 28.85 Mwords without degradation in triples
 

 RESULTS
 =======

  Reference energy                   -267.265376261461
  UCCSD singles energy                 -0.002820839707
  UCCSD pair energy                    -0.840320325068
  UCCSD correlation energy             -0.843141164775
  Triples (T) contribution             -0.024976617605
  Total correlation energy             -0.868117782379
 
  RHF-UCCSD energy                   -268.108517426236
  RHF-UCCSD[T] energy                -268.134829983435
  RHF-UCCSD-T energy                 -268.133072508075
 !RHF-UCCSD(T) energy                -268.133494043840

 Program statistics:

 Available memory in ccsd:               999997692
 Min. memory needed in ccsd:               7337057
 Max. memory used in ccsd:                10523002
 Max. memory used in cckext:              10867977 (31 integral passes)
 Max. memory used in cckint:              12633073 ( 1 integral passes)



 **********************************************************************************************************************************
 DATASETS  * FILE   NREC   LENGTH (MB)   RECORD NAMES
              1      18        3.17       500      610      700      900      950      970     1000      129      960     1100   
                                          VAR    BASINP    GEOM    SYMINP    ZMAT    AOBASIS   BASIS     P2S    ABASIS      S 
                                         1400     1410     1200     1210     1080     1600     1650     1700   
                                           T        V       H0       H01     AOSYM     SMH    MOLCAS    OPER   

              2       3        0.77       700     1000     2100   
                                         GEOM     BASIS     RHF  

 PROGRAMS   *        TOTAL  UCCSD(T)       RHF       INT
 CPU TIMES  *       213.92    212.15      0.95      0.76
 REAL TIME  *       223.15 SEC
 DISK USED  *         1.29 GB      
 SF USED    *       553.73 MB      
 GA USED    *         0.00 MB       (max)       0.00 MB       (current)
 **********************************************************************************************************************************

        UCCSD(T)        RHF-SCF 
   -268.13349404   -267.26537626
 **********************************************************************************************************************************
 Variable memory released
