
 Primary working directories    : /tmp/320938.362.gen4.q
 Secondary working directories  : /tmp/320938.362.gen4.q
 Wavefunction directory         : /home/vulcan/mel64643/wfu/
 Main file repository           : /tmp/320938.362.gen4.q/

 ARCHNAME  : Linux/x86_64
 FC        : /opt/intel/compilers_and_libraries_2016.1.150/linux/bin/intel64/ifort
 FCVERSION : 16.0.1
 BLASLIB   : -mkl
 id        : ccgc

 Nodes     nprocs
 n029         3
 Number of processes for MPI-2 version of Molpro:   nprocs(total)=    4   nprocs(compute)=    3   nprocs(helper)=    1
 ga_uses_ma=false, calling ma_init with nominal heap.
 GA-space will be limited to   8.0 MW (determined by -G option)

 Using customized tuning parameters: mindgm=10; mindgv=16; mindgc=4; mindgr=1; noblas=0; mincuda=1000; minvec=7
 default implementation of scratch files=sf  

 ***,Frequencies for min3
 memory,1000,m
 gthresh,energy=1.0d-10,orbital=1.0d-10,oneint=1.0d-16,twoint=1.0d-16,optgrad=1.0d-6,compress=1.0d-13
 geomtyp=xyz
 
  geometry = {
  12
  arbitrary comment
     C    1.776964391707    0.710796989572   -0.047322446502
     C    0.491803053583   -0.059776892665   -0.196494422871
     C    0.450499919776   -1.536086466232    0.101399764646
     O   -0.560870753480    0.727320075144    0.254462243849
     O   -1.837867451833    0.092206187165   -0.120531387278
     H    2.585331904498    0.211936507060   -0.611437476735
     H    1.660202459926    1.743246071318   -0.426511433139
     H    2.095014615028    0.774441195955    1.017660196368
     H   -0.504650897904   -1.982678845655   -0.220107284314
     H    1.282122081700   -2.046891924612   -0.417181596630
     H    0.560796873808   -1.717914046822    1.193727182014
     H   -1.986951659203    0.549718178009   -0.965993404901
  }
 
 basis=cc-pvdz
 {rhf;maxit,200}
 {uccsd(t);maxit,200}

 Variables initialized (661), CPU time= 0.01 sec
 Commands  initialized (458), CPU time= 0.01 sec, 486 directives.
 Default parameters read. Elapsed time= 0.08 sec

 Checking input...
 Passed
1


                                         ***  PROGRAM SYSTEM MOLPRO  ***
                         Copyright, University College Cardiff Consultants Limited, 2008

                                    Version 2010.1 linked May 16 2016 07:17:05


 **********************************************************************************************************************************
 LABEL *   Frequencies for min3                                                          
 Linux-4.4.3/n029(x86_64) 64 bit mpp version                                             DATE: 07-Mar-20          TIME: 03:05:35  
 **********************************************************************************************************************************

 SHA1:             9e8077add272b0f3cad6f7df79ec5211205f459d
 **********************************************************************************************************************************

 THRESHOLDS:

 ZERO    =  1.00D-12  ONEINT  =  1.00D-16  TWOINT  =  1.00D-16  PREFAC  =  1.00D-14  LOCALI  =  1.00D-09  EORDER  =  1.00D-04
 ENERGY  =  1.00D-10  ETEST   =  0.00D+00  EDENS   =  0.00D+00  THRDEDEF=  1.00D-06  GRADIENT=  1.00D-02  STEP    =  1.00D-03
 ORBITAL =  1.00D-10  CIVEC   =  1.00D-05  COEFF   =  1.00D-04  PRINTCI =  5.00D-02  PUNCHCI =  9.90D+01  OPTGRAD =  1.00D-06
 OPTENERG=  1.00D-06  OPTSTEP =  3.00D-04  THRGRAD =  1.00D-10  COMPRESS=  1.00D-13  VARMIN  =  1.00D-07  VARMAX  =  1.00D-03
 THRDOUB =  0.00D+00  THRDIV  =  1.00D-05  THRRED  =  1.00D-07  THRPSP  =  1.00D+00  THRDC   =  1.00D-10  THRCS   =  1.00D-10
 THRNRM  =  1.00D-08  THREQ   =  0.00D+00  THRDE   =  1.00D+00  THRREF  =  1.00D-05  SPARFAC =  1.00D+00  THRDLP  =  1.00D-07
 THRDIA  =  1.00D-10  THRDLS  =  1.00D-07  THRGPS  =  0.00D+00  THRKEX  =  0.00D+00  THRDIS  =  2.00D-01  THRVAR  =  1.00D-10
 THRLOC  =  1.00D-06  THRGAP  =  1.00D-06  THRLOCT = -1.00D+00  THRGAPT = -1.00D+00  THRORB  =  1.00D-06  THRMLTP =  0.00D+00
 THRCPQCI=  1.00D-10  KEXTA   =  0.00D+00  THRCOARS=  0.00D+00  SYMTOL  =  1.00D-06  GRADTOL =  1.00D-06  THROVL  =  1.00D-08
 THRORTH =  1.00D-08  GRID    =  1.00D-06  GRIDMAX =  1.00D-03  DTMAX   =  0.00D+00

 SETTING GEOMTYP        =    XYZ

 Variable memory set to 1000000000 words,  buffer space   230000 words

 SETTING BASIS          =    CC-PVDZ


 Recomputing integrals since basis changed


 Using spherical harmonics

 Library entry C      S cc-pVDZ              selected for orbital group  1
 Library entry C      P cc-pVDZ              selected for orbital group  1
 Library entry C      D cc-pVDZ              selected for orbital group  1
 Library entry O      S cc-pVDZ              selected for orbital group  2
 Library entry O      P cc-pVDZ              selected for orbital group  2
 Library entry O      D cc-pVDZ              selected for orbital group  2
 Library entry H      S cc-pVDZ              selected for orbital group  3
 Library entry H      P cc-pVDZ              selected for orbital group  3

1PROGRAM * SEWARD (Integral evaluation for generally contracted gaussian basis sets)     Author: Roland Lindh, 1990

 Geometry written to block  1 of record 700


 Point group  C1  



 ATOMIC COORDINATES

 NR  ATOM    CHARGE       X              Y              Z

   1  C       6.00    3.357976046    1.343211645   -0.089426464
   2  C       6.00    0.929373082   -0.112961956   -0.371320646
   3  C       6.00    0.851321471   -2.902782735    0.191617785
   4  O       8.00   -1.059892119    1.374435752    0.480863952
   5  O       8.00   -3.473066150    0.174244441   -0.227771312
   6  H       1.00    4.885569258    0.400501956   -1.155449378
   7  H       1.00    3.137327972    3.294257654   -0.805989801
   8  H       1.00    3.959003864    1.463481765    1.923099066
   9  H       1.00   -0.953651989   -3.746720025   -0.415942487
  10  H       1.00    2.422859601   -3.868065158   -0.788358965
  11  H       1.00    1.059752507   -3.246387066    2.255817450
  12  H       1.00   -3.754794472    1.038816806   -1.825462980

 Bond lengths in Bohr (Angstrom)

 1-2  2.845701714  1-6  2.087737396  1-7  2.090150501  1-8  2.103796175  2-3  2.847119898
     ( 1.505880490)     ( 1.104783048)     ( 1.106060009)     ( 1.113280988)     ( 1.506630961)

  2- 4  2.625975356   3- 9  2.083095971   3-10  2.088505849   3-11  2.102956892   4- 5  2.786760130
       ( 1.389606310)       ( 1.102326912)       ( 1.105189696)       ( 1.112836859)       ( 1.474689948)

  5-12  1.838334814
       ( 0.972804886)

 Bond angles

  1-2-3  120.34604744   1-2-4  108.93605743   2-1-6  110.04818645   2-1-7  110.70773590

  2- 1- 8  111.58180247   2- 3- 9  111.28876811   2- 3-10  109.84532216   2- 3-11  110.57686857

  2- 4- 5  109.23946123   3- 2- 4  118.03986089   4- 5-12   98.69410516   6- 1- 7  108.88589799

  6- 1- 8  107.77239722   7- 1- 8  107.74316461   9- 3-10  109.14141701   9- 3-11  107.81662486

 10- 3-11  108.08809470

 NUCLEAR CHARGE:                   41
 NUMBER OF PRIMITIVE AOS:         184
 NUMBER OF SYMMETRY AOS:          179
 NUMBER OF CONTRACTIONS:          105   ( 105A   )
 NUMBER OF CORE ORBITALS:           5   (   5A   )
 NUMBER OF VALENCE ORBITALS:       27   (  27A   )


 NUCLEAR REPULSION ENERGY  183.24513988


 Eigenvalues of metric

         1 0.345E-02 0.435E-02 0.105E-01 0.141E-01 0.182E-01 0.214E-01 0.331E-01 0.345E-01


 Contracted 2-electron integrals neglected if value below      1.0D-16
 AO integral compression algorithm  1   Integral accuracy      1.0D-16

     127.402 MB (compressed) written to integral file ( 93.4%)

     Node minimum: 41.157 MB, node maximum: 44.040 MB


 NUMBER OF SORTED TWO-ELECTRON INTEGRALS:    5164320.     BUFFER LENGTH:  32768
 NUMBER OF SEGMENTS:   1  SEGMENT LENGTH:    5164320      RECORD LENGTH: 524288

 Memory used in sort:       5.72 MW

 SORT1 READ    17075494. AND WROTE     5135955. INTEGRALS IN     15 RECORDS. CPU TIME:     0.24 SEC, REAL TIME:     0.28 SEC
 SORT2 READ    15396773. AND WROTE    15487395. INTEGRALS IN    483 RECORDS. CPU TIME:     0.07 SEC, REAL TIME:     0.12 SEC

 Node minimum:     5160610.  Node maximum:     5164320. integrals

 OPERATOR DM      FOR CENTER  0  COORDINATES:    0.000000    0.000000    0.000000


 **********************************************************************************************************************************
 DATASETS  * FILE   NREC   LENGTH (MB)   RECORD NAMES
              1      18        3.17       500      610      700      900      950      970     1000      129      960     1100   
                                          VAR    BASINP    GEOM    SYMINP    ZMAT    AOBASIS   BASIS     P2S    ABASIS      S 
                                         1400     1410     1200     1210     1080     1600     1650     1700   
                                           T        V       H0       H01     AOSYM     SMH    MOLCAS    OPER   

 PROGRAMS   *        TOTAL       INT
 CPU TIMES  *         1.36      1.25
 REAL TIME  *         1.68 SEC
 DISK USED  *       305.44 MB      
 GA USED    *         0.00 MB       (max)       0.00 MB       (current)
 **********************************************************************************************************************************

1PROGRAM * RHF-SCF (OPEN SHELL)       Authors: W. Meyer, H.-J. Werner


 NUMBER OF ELECTRONS:      21+   20-    SPACE SYMMETRY=1    SPIN SYMMETRY: Doublet 
 CONVERGENCE THRESHOLDS:    1.00E-10 (Density)    1.00E-11 (Energy)
 MAX. NUMBER OF ITERATIONS:      200
 INTERPOLATION TYPE:            DIIS
 INTERPOLATION STEPS:              2 (START)      1 (STEP)
 LEVEL SHIFTS:                 -0.30 (CLOSED)  0.00 (OPEN) 



 Orbital guess generated from atomic densities. Full valence occupancy:   32

 Molecular orbital dump at record        2100.2

 ITERATION    DDIFF          GRAD             ENERGY        2-EL.EN.            DIPOLE MOMENTS         DIIS
    1      0.000D+00      0.000D+00      -267.17830092    555.856062    0.57205    0.04997   -0.74841    0
    2      0.000D+00      0.617D-02      -267.24900211    555.779007    0.41548   -0.13179   -0.59786    1
    3      0.928D-02      0.214D-02      -267.26118549    555.696512    0.39495   -0.05986   -0.62512    2
    4      0.336D-02      0.913D-03      -267.26479975    555.849150    0.38017   -0.10015   -0.64161    3
    5      0.186D-02      0.364D-03      -267.26537022    555.820545    0.38261   -0.09373   -0.63457    4
    6      0.793D-03      0.110D-03      -267.26544696    555.806809    0.38083   -0.09355   -0.63732    5
    7      0.277D-03      0.512D-04      -267.26546721    555.803804    0.38009   -0.09331   -0.63682    6
    8      0.144D-03      0.273D-04      -267.26547330    555.801858    0.38034   -0.09342   -0.63704    7
    9      0.927D-04      0.115D-04      -267.26547422    555.802174    0.38052   -0.09338   -0.63679    8
   10      0.366D-04      0.502D-05      -267.26547438    555.802785    0.38078   -0.09339   -0.63686    9
   11      0.147D-04      0.197D-05      -267.26547441    555.802626    0.38083   -0.09339   -0.63687    9
   12      0.651D-05      0.671D-06      -267.26547441    555.802760    0.38085   -0.09339   -0.63686    9
   13      0.227D-05      0.227D-06      -267.26547441    555.802676    0.38086   -0.09339   -0.63686    9
   14      0.632D-06      0.758D-07      -267.26547441    555.802684    0.38086   -0.09339   -0.63686    9
   15      0.193D-06      0.300D-07      -267.26547441    555.802680    0.38086   -0.09339   -0.63686    9
   16      0.825D-07      0.145D-07      -267.26547441    555.802682    0.38086   -0.09339   -0.63686    9
   17      0.373D-07      0.749D-08      -267.26547441    555.802682    0.38086   -0.09339   -0.63686    9
   18      0.222D-07      0.341D-08      -267.26547441    555.802682    0.38086   -0.09339   -0.63686    9
   19      0.114D-07      0.133D-08      -267.26547441    555.802682    0.38086   -0.09339   -0.63686    9
   20      0.444D-08      0.568D-09      -267.26547441    555.802682    0.38086   -0.09339   -0.63686    9
   21      0.166D-08      0.287D-09      -267.26547441    555.802682    0.38086   -0.09339   -0.63686    9
   22      0.755D-09      0.162D-09      -267.26547441    555.802682    0.38086   -0.09339   -0.63686    9
   23      0.446D-09      0.796D-10      -267.26547441    555.802682    0.38086   -0.09339   -0.63686    9
   24      0.263D-09      0.317D-10      -267.26547441    555.802682    0.38086   -0.09339   -0.63686    9
   25      0.933D-10      0.129D-10      -267.26547441    555.802682    0.38086   -0.09339   -0.63686    0

 Final alpha occupancy:  21
 Final beta  occupancy:  20

 !RHF STATE 1.1 Energy               -267.265474411928
 Nuclear energy                       183.24513988
 One-electron energy                 -728.41195533
 Two-electron energy                  277.90134104
 Virial quotient                       -1.00153784
 !RHF STATE 1.1 Dipole moment           0.38085940    -0.09339129    -0.63685833
 Dipole moment /Debye                   0.96798464    -0.23736142    -1.61862638

 Orbital energies:

         1.1          2.1          3.1          4.1          5.1          6.1          7.1          8.1          9.1         10.1
    -20.630516   -20.628726   -11.279234   -11.237896   -11.232053    -1.470373    -1.241030    -1.023356    -0.945399    -0.768569

        11.1         12.1         13.1         14.1         15.1         16.1         17.1         18.1         19.1         20.1
     -0.704879    -0.643050    -0.626877    -0.588902    -0.545277    -0.543333    -0.539230    -0.516820    -0.493124    -0.469846

        21.1         22.1         23.1
     -0.352292     0.181387     0.183637


 **********************************************************************************************************************************
 DATASETS  * FILE   NREC   LENGTH (MB)   RECORD NAMES
              1      18        3.17       500      610      700      900      950      970     1000      129      960     1100   
                                          VAR    BASINP    GEOM    SYMINP    ZMAT    AOBASIS   BASIS     P2S    ABASIS      S 
                                         1400     1410     1200     1210     1080     1600     1650     1700   
                                           T        V       H0       H01     AOSYM     SMH    MOLCAS    OPER   

              2       3        0.77       700     1000     2100   
                                         GEOM     BASIS     RHF  

 PROGRAMS   *        TOTAL       RHF       INT
 CPU TIMES  *         2.67      1.31      1.25
 REAL TIME  *         3.14 SEC
 DISK USED  *       322.01 MB      
 SF USED    *         0.04 MB      
 GA USED    *         0.00 MB       (max)       0.00 MB       (current)
 **********************************************************************************************************************************


1PROGRAM * CCSD (Unrestricted open-shell coupled cluster)     Authors: C. Hampel, H.-J. Werner, 1991, M. Deegan, P.J. Knowles, 1992


 Convergence thresholds:  THRVAR = 1.00D-08  THRDEN = 1.00D-10

 CCSD(T)     terms to be evaluated (factor= 1.000)


 Number of core orbitals:           5 (   5 )
 Number of closed-shell orbitals:  15 (  15 )
 Number of active  orbitals:        1 (   1 )
 Number of external orbitals:      84 (  84 )

 Memory could be reduced to 24.91 Mwords without degradation in triples

 Number of N-1 electron functions:              31
 Number of N-2 electron functions:             465
 Number of singly external CSFs:              2635
 Number of doubly external CSFs:           2537250
 Total number of CSFs:                     2539885

 Molecular orbitals read from record     2100.2  Type=RHF/CANONICAL (state 1.1)

 Integral transformation finished. Total CPU:   1.15 sec, npass=  1  Memory used:  12.63 MW

 Starting RMP2 calculation

 ITER.      SQ.NORM     CORR.ENERGY   TOTAL ENERGY   ENERGY CHANGE        DEN1      VAR(S)    VAR(P)  DIIS     TIME
   1      1.24296233    -0.78630059  -268.05177500    -0.78630059    -0.00304856  0.20D-04  0.11D-02  1  1     1.51
   2      1.24560221    -0.78958822  -268.05506263    -0.00328763    -0.00000474  0.54D-06  0.19D-05  2  2     1.85
   3      1.24566771    -0.78963026  -268.05510467    -0.00004204    -0.00000003  0.16D-07  0.68D-08  3  3     2.22
   4      1.24566866    -0.78963026  -268.05510467    -0.00000000    -0.00000000  0.27D-09  0.38D-10  4  4     2.62
   5      1.24566874    -0.78963029  -268.05510470    -0.00000003    -0.00000000  0.25D-11  0.65D-12  5  5     3.05
   6      1.24566876    -0.78963030  -268.05510471    -0.00000001    -0.00000000  0.28D-13  0.86D-14  6  6     3.51
   7      1.24566876    -0.78963030  -268.05510471     0.00000000    -0.00000000  0.47D-15  0.12D-15  6  1     3.97
   8      1.24566876    -0.78963030  -268.05510471     0.00000000    -0.00000000  0.59D-17  0.13D-17  6  2     4.42

 Norm of t1 vector:      0.03892447      S-energy:    -0.00227120      T1 diagnostic:  0.00055005
 Norm of t2 vector:      0.49411905      P-energy:    -0.78735910
                                         Alpha-Beta:  -0.59335145
                                         Alpha-Alpha: -0.10093441
                                         Beta-Beta:   -0.09307324

 Spin contamination <S**2-Sz**2-Sz>     0.00103999
  Reference energy                   -267.265474411930
  RHF-RMP2 correlation energy          -0.789630296446
 !RHF-RMP2 energy                    -268.055104708375

 Starting UCCSD calculation

 ITER.      SQ.NORM     CORR.ENERGY   TOTAL ENERGY   ENERGY CHANGE        DEN1      VAR(S)    VAR(P)  DIIS     TIME
   1      1.26273771    -0.80898507  -268.07445948    -0.80898507    -0.02514695  0.38D-02  0.59D-02  1  1    11.17
   2      1.29149617    -0.83638481  -268.10185923    -0.02739974    -0.00200944  0.22D-03  0.66D-03  2  2    17.89
   3      1.30142812    -0.84087932  -268.10635373    -0.00449451    -0.00032435  0.19D-03  0.56D-04  3  3    24.61
   4      1.30633636    -0.84235519  -268.10782960    -0.00147587    -0.00007202  0.43D-04  0.14D-04  4  4    31.37
   5      1.30906380    -0.84274301  -268.10821743    -0.00038783    -0.00002364  0.19D-04  0.32D-05  5  5    38.24
   6      1.31100075    -0.84294730  -268.10842171    -0.00020429    -0.00000645  0.42D-05  0.12D-05  6  6    48.23
   7      1.31194875    -0.84300601  -268.10848042    -0.00005871    -0.00000208  0.14D-05  0.37D-06  6  2    58.31
   8      1.31238977    -0.84304864  -268.10852305    -0.00004264    -0.00000065  0.45D-06  0.11D-06  6  1    68.34
   9      1.31257477    -0.84305322  -268.10852763    -0.00000457    -0.00000022  0.15D-06  0.35D-07  6  4    78.43
  10      1.31263788    -0.84305614  -268.10853055    -0.00000292    -0.00000005  0.35D-07  0.95D-08  6  3    88.18
  11      1.31266742    -0.84305489  -268.10852930     0.00000125    -0.00000002  0.13D-07  0.28D-08  6  5    97.86
  12      1.31267781    -0.84305463  -268.10852904     0.00000026    -0.00000000  0.26D-08  0.95D-09  6  6   107.62
  13      1.31267667    -0.84305372  -268.10852813     0.00000091    -0.00000000  0.96D-09  0.28D-09  6  2   114.71
  14      1.31267146    -0.84305287  -268.10852729     0.00000084    -0.00000000  0.21D-09  0.67D-10  6  1   121.56
  15      1.31266739    -0.84305229  -268.10852670     0.00000059    -0.00000000  0.78D-10  0.19D-10  6  4   128.43
  16      1.31266421    -0.84305190  -268.10852632     0.00000038    -0.00000000  0.28D-10  0.63D-11  6  3   135.29
  17      1.31266201    -0.84305167  -268.10852608     0.00000024    -0.00000000  0.10D-10  0.24D-11  6  5   142.17
  18      1.31266111    -0.84305161  -268.10852602     0.00000006    -0.00000000  0.41D-11  0.87D-12  6  6   149.02
  19      1.31266050    -0.84305157  -268.10852598     0.00000003    -0.00000000  0.16D-11  0.37D-12  6  2   155.85
  20      1.31266018    -0.84305156  -268.10852597     0.00000001    -0.00000000  0.60D-12  0.13D-12  6  1   162.69
  21      1.31266002    -0.84305155  -268.10852596     0.00000001    -0.00000000  0.28D-12  0.58D-13  6  4   169.51
  22      1.31265990    -0.84305154  -268.10852595     0.00000001    -0.00000000  0.73D-13  0.21D-13  6  3   176.33
  23      1.31265984    -0.84305154  -268.10852595     0.00000000    -0.00000000  0.21D-13  0.62D-14  6  5   183.18
  24      1.31265983    -0.84305154  -268.10852595    -0.00000000    -0.00000000  0.67D-14  0.22D-14  6  6   190.01
  25      1.31265984    -0.84305154  -268.10852595    -0.00000000    -0.00000000  0.21D-14  0.52D-15  6  2   196.83
  26      1.31265985    -0.84305154  -268.10852595    -0.00000000    -0.00000000  0.76D-15  0.15D-15  6  1   203.68
  27      1.31265986    -0.84305154  -268.10852595    -0.00000000    -0.00000000  0.20D-15  0.62D-16  6  3   210.49
  28      1.31265986    -0.84305154  -268.10852595    -0.00000000    -0.00000000  0.29D-16  0.11D-16  6  4   217.30
  29      1.31265986    -0.84305154  -268.10852595    -0.00000000    -0.00000000  0.70D-17  0.29D-17  6  5   224.12
  30      1.31265986    -0.84305154  -268.10852595    -0.00000000    -0.00000000  0.15D-17  0.54D-18  6  6   230.95
  31      1.31265986    -0.84305154  -268.10852595    -0.00000000    -0.00000000  0.35D-18  0.10D-18  6  2   237.73

 Norm of t1 vector:      0.13866002      S-energy:    -0.00282042      T1 diagnostic:  0.01616249
                                                                       D1 diagnostic:  0.06280406
 Norm of t2 vector:      0.54169481      P-energy:    -0.84023112
                                         Alpha-Beta:  -0.66478658
                                         Alpha-Alpha: -0.09147372
                                         Beta-Beta:   -0.08397083

 Spin contamination <S**2-Sz**2-Sz>     0.00216985

 Memory could be reduced to 28.85 Mwords without degradation in triples
 

 RESULTS
 =======

  Reference energy                   -267.265474411930
  UCCSD singles energy                 -0.002820420322
  UCCSD pair energy                    -0.840231122532
  UCCSD correlation energy             -0.843051542853
  Triples (T) contribution             -0.024967789038
  Total correlation energy             -0.868019331891
 
  RHF-UCCSD energy                   -268.108525954783
  RHF-UCCSD[T] energy                -268.134828671723
  RHF-UCCSD-T energy                 -268.133072608589
 !RHF-UCCSD(T) energy                -268.133493743821

 Program statistics:

 Available memory in ccsd:               999997692
 Min. memory needed in ccsd:               7337057
 Max. memory used in ccsd:                10523002
 Max. memory used in cckext:              10867977 (31 integral passes)
 Max. memory used in cckint:              12633073 ( 1 integral passes)



 **********************************************************************************************************************************
 DATASETS  * FILE   NREC   LENGTH (MB)   RECORD NAMES
              1      18        3.17       500      610      700      900      950      970     1000      129      960     1100   
                                          VAR    BASINP    GEOM    SYMINP    ZMAT    AOBASIS   BASIS     P2S    ABASIS      S 
                                         1400     1410     1200     1210     1080     1600     1650     1700   
                                           T        V       H0       H01     AOSYM     SMH    MOLCAS    OPER   

              2       3        0.77       700     1000     2100   
                                         GEOM     BASIS     RHF  

 PROGRAMS   *        TOTAL  UCCSD(T)       RHF       INT
 CPU TIMES  *       301.57    298.89      1.31      1.25
 REAL TIME  *       315.70 SEC
 DISK USED  *         1.29 GB      
 SF USED    *       553.73 MB      
 GA USED    *         0.00 MB       (max)       0.00 MB       (current)
 **********************************************************************************************************************************

        UCCSD(T)        RHF-SCF 
   -268.13349374   -267.26547441
 **********************************************************************************************************************************
 Variable memory released
