
 Primary working directories    : /tmp/320938.523.gen6.q
 Secondary working directories  : /tmp/320938.523.gen6.q
 Wavefunction directory         : /home/vulcan/mel64643/wfu/
 Main file repository           : /tmp/320938.523.gen6.q/

 ARCHNAME  : Linux/x86_64
 FC        : /opt/intel/compilers_and_libraries_2016.1.150/linux/bin/intel64/ifort
 FCVERSION : 16.0.1
 BLASLIB   : -mkl
 id        : ccgc

 Nodes     nprocs
 n080         3
 Number of processes for MPI-2 version of Molpro:   nprocs(total)=    4   nprocs(compute)=    3   nprocs(helper)=    1
 ga_uses_ma=false, calling ma_init with nominal heap.
 GA-space will be limited to   8.0 MW (determined by -G option)

 Using customized tuning parameters: mindgm=10; mindgv=16; mindgc=4; mindgr=1; noblas=0; mincuda=1000; minvec=7
 default implementation of scratch files=sf  

 ***,Frequencies for min3
 memory,1000,m
 gthresh,energy=1.0d-10,orbital=1.0d-10,oneint=1.0d-16,twoint=1.0d-16,optgrad=1.0d-6,compress=1.0d-13
 geomtyp=xyz
 
  geometry = {
  12
  arbitrary comment
     C    1.776964391707    0.710796989572   -0.047322446502
     C    0.491803053583   -0.059776892665   -0.197130186342
     C    0.450498143045   -1.536086381856    0.101591506430
     O   -0.560897529481    0.727308654513    0.254658985363
     O   -1.837846066696    0.092212946863   -0.120529450916
     H    2.585413805235    0.211983318041   -0.610880554931
     H    1.660257363748    1.743279772347   -0.425980977592
     H    2.094893138993    0.774392924679    1.018188750337
     H   -0.504611643796   -1.982662801493   -0.220059612123
     H    1.282185929003   -2.046859772430   -0.416916217377
     H    0.561836114178   -1.719023555675    1.194919230252
     H   -1.988002617353    0.550820217515   -0.966980707803
  }
 
 basis=cc-pvdz
 {rhf;maxit,200}
 {uccsd(t);maxit,200}

 Variables initialized (661), CPU time= 0.00 sec
 Commands  initialized (458), CPU time= 0.01 sec, 486 directives.
 Default parameters read. Elapsed time= 0.05 sec

 Checking input...
 Passed
1


                                         ***  PROGRAM SYSTEM MOLPRO  ***
                         Copyright, University College Cardiff Consultants Limited, 2008

                                    Version 2010.1 linked May 16 2016 07:17:05


 **********************************************************************************************************************************
 LABEL *   Frequencies for min3                                                          
 Linux-4.4.3/n080(x86_64) 64 bit mpp version                                             DATE: 07-Mar-20          TIME: 04:02:34  
 **********************************************************************************************************************************

 SHA1:             9e8077add272b0f3cad6f7df79ec5211205f459d
 **********************************************************************************************************************************

 THRESHOLDS:

 ZERO    =  1.00D-12  ONEINT  =  1.00D-16  TWOINT  =  1.00D-16  PREFAC  =  1.00D-14  LOCALI  =  1.00D-09  EORDER  =  1.00D-04
 ENERGY  =  1.00D-10  ETEST   =  0.00D+00  EDENS   =  0.00D+00  THRDEDEF=  1.00D-06  GRADIENT=  1.00D-02  STEP    =  1.00D-03
 ORBITAL =  1.00D-10  CIVEC   =  1.00D-05  COEFF   =  1.00D-04  PRINTCI =  5.00D-02  PUNCHCI =  9.90D+01  OPTGRAD =  1.00D-06
 OPTENERG=  1.00D-06  OPTSTEP =  3.00D-04  THRGRAD =  1.00D-10  COMPRESS=  1.00D-13  VARMIN  =  1.00D-07  VARMAX  =  1.00D-03
 THRDOUB =  0.00D+00  THRDIV  =  1.00D-05  THRRED  =  1.00D-07  THRPSP  =  1.00D+00  THRDC   =  1.00D-10  THRCS   =  1.00D-10
 THRNRM  =  1.00D-08  THREQ   =  0.00D+00  THRDE   =  1.00D+00  THRREF  =  1.00D-05  SPARFAC =  1.00D+00  THRDLP  =  1.00D-07
 THRDIA  =  1.00D-10  THRDLS  =  1.00D-07  THRGPS  =  0.00D+00  THRKEX  =  0.00D+00  THRDIS  =  2.00D-01  THRVAR  =  1.00D-10
 THRLOC  =  1.00D-06  THRGAP  =  1.00D-06  THRLOCT = -1.00D+00  THRGAPT = -1.00D+00  THRORB  =  1.00D-06  THRMLTP =  0.00D+00
 THRCPQCI=  1.00D-10  KEXTA   =  0.00D+00  THRCOARS=  0.00D+00  SYMTOL  =  1.00D-06  GRADTOL =  1.00D-06  THROVL  =  1.00D-08
 THRORTH =  1.00D-08  GRID    =  1.00D-06  GRIDMAX =  1.00D-03  DTMAX   =  0.00D+00

 SETTING GEOMTYP        =    XYZ

 Variable memory set to 1000000000 words,  buffer space   230000 words

 SETTING BASIS          =    CC-PVDZ


 Recomputing integrals since basis changed


 Using spherical harmonics

 Library entry C      S cc-pVDZ              selected for orbital group  1
 Library entry C      P cc-pVDZ              selected for orbital group  1
 Library entry C      D cc-pVDZ              selected for orbital group  1
 Library entry O      S cc-pVDZ              selected for orbital group  2
 Library entry O      P cc-pVDZ              selected for orbital group  2
 Library entry O      D cc-pVDZ              selected for orbital group  2
 Library entry H      S cc-pVDZ              selected for orbital group  3
 Library entry H      P cc-pVDZ              selected for orbital group  3

1PROGRAM * SEWARD (Integral evaluation for generally contracted gaussian basis sets)     Author: Roland Lindh, 1990

 Geometry written to block  1 of record 700


 Point group  C1  



 ATOMIC COORDINATES

 NR  ATOM    CHARGE       X              Y              Z

   1  C       6.00    3.357976046    1.343211645   -0.089426464
   2  C       6.00    0.929373082   -0.112961956   -0.372522064
   3  C       6.00    0.851318113   -2.902782576    0.191980124
   4  O       8.00   -1.059942719    1.374414170    0.481235739
   5  O       8.00   -3.473025738    0.174257215   -0.227767653
   6  H       1.00    4.885724028    0.400590416   -1.154396948
   7  H       1.00    3.137431725    3.294321340   -0.804987385
   8  H       1.00    3.958774307    1.463390546    1.924097888
   9  H       1.00   -0.953577810   -3.746689706   -0.415852399
  10  H       1.00    2.422980255   -3.868004399   -0.787857471
  11  H       1.00    1.061716387   -3.248483734    2.258070094
  12  H       1.00   -3.756780495    1.040899359   -1.827328712

 Bond lengths in Bohr (Angstrom)

 1-2  2.845820977  1-6  2.087273536  1-7  2.089855562  1-8  2.104680934  2-3  2.847429435
     ( 1.505943602)     ( 1.104537584)     ( 1.105903934)     ( 1.113749183)     ( 1.506794761)

  2- 4  2.626512418   3- 9  2.083095992   3-10  2.088505870   3-11  2.105351393   4- 5  2.786760159
       ( 1.389890511)       ( 1.102326923)       ( 1.105189707)       ( 1.114103974)       ( 1.474689963)

  5-12  1.841244402
       ( 0.974344574)

 Bond angles

  1-2-3  120.33189305   1-2-4  108.92055929   2-1-6  110.04704734   2-1-7  110.70749127

  2- 1- 8  111.59200647   2- 3- 9  111.27402526   2- 3-10  109.82629657   2- 3-11  110.65207850

  2- 4- 5  109.22367387   3- 2- 4  118.01041614   4- 5-12   98.72910077   6- 1- 7  108.91502341

  6- 1- 8  107.75652307   7- 1- 8  107.72101318   9- 3-10  109.14141674   9- 3-11  107.84352452

 10- 3-11  108.01808130

 NUCLEAR CHARGE:                   41
 NUMBER OF PRIMITIVE AOS:         184
 NUMBER OF SYMMETRY AOS:          179
 NUMBER OF CONTRACTIONS:          105   ( 105A   )
 NUMBER OF CORE ORBITALS:           5   (   5A   )
 NUMBER OF VALENCE ORBITALS:       27   (  27A   )


 NUCLEAR REPULSION ENERGY  183.22180248


 Eigenvalues of metric

         1 0.345E-02 0.436E-02 0.105E-01 0.141E-01 0.182E-01 0.214E-01 0.331E-01 0.345E-01


 Contracted 2-electron integrals neglected if value below      1.0D-16
 AO integral compression algorithm  1   Integral accuracy      1.0D-16

     127.402 MB (compressed) written to integral file ( 93.4%)

     Node minimum: 41.419 MB, node maximum: 43.254 MB


 NUMBER OF SORTED TWO-ELECTRON INTEGRALS:    5164320.     BUFFER LENGTH:  32768
 NUMBER OF SEGMENTS:   1  SEGMENT LENGTH:    5164320      RECORD LENGTH: 524288

 Memory used in sort:       5.72 MW

 SORT1 READ    17075251. AND WROTE     5135923. INTEGRALS IN     15 RECORDS. CPU TIME:     0.20 SEC, REAL TIME:     0.23 SEC
 SORT2 READ    15396678. AND WROTE    15487395. INTEGRALS IN    495 RECORDS. CPU TIME:     0.05 SEC, REAL TIME:     0.09 SEC

 Node minimum:     5160610.  Node maximum:     5164320. integrals

 OPERATOR DM      FOR CENTER  0  COORDINATES:    0.000000    0.000000    0.000000


 **********************************************************************************************************************************
 DATASETS  * FILE   NREC   LENGTH (MB)   RECORD NAMES
              1      18        3.17       500      610      700      900      950      970     1000      129      960     1100   
                                          VAR    BASINP    GEOM    SYMINP    ZMAT    AOBASIS   BASIS     P2S    ABASIS      S 
                                         1400     1410     1200     1210     1080     1600     1650     1700   
                                           T        V       H0       H01     AOSYM     SMH    MOLCAS    OPER   

 PROGRAMS   *        TOTAL       INT
 CPU TIMES  *         0.81      0.75
 REAL TIME  *         1.21 SEC
 DISK USED  *       304.92 MB      
 GA USED    *         0.00 MB       (max)       0.00 MB       (current)
 **********************************************************************************************************************************

1PROGRAM * RHF-SCF (OPEN SHELL)       Authors: W. Meyer, H.-J. Werner


 NUMBER OF ELECTRONS:      21+   20-    SPACE SYMMETRY=1    SPIN SYMMETRY: Doublet 
 CONVERGENCE THRESHOLDS:    1.00E-10 (Density)    1.00E-11 (Energy)
 MAX. NUMBER OF ITERATIONS:      200
 INTERPOLATION TYPE:            DIIS
 INTERPOLATION STEPS:              2 (START)      1 (STEP)
 LEVEL SHIFTS:                 -0.30 (CLOSED)  0.00 (OPEN) 



 Orbital guess generated from atomic densities. Full valence occupancy:   32

 Molecular orbital dump at record        2100.2

 ITERATION    DDIFF          GRAD             ENERGY        2-EL.EN.            DIPOLE MOMENTS         DIIS
    1      0.000D+00      0.000D+00      -267.17824130    555.816209    0.56995    0.05118   -0.74903    0
    2      0.000D+00      0.617D-02      -267.24893147    555.738692    0.41456   -0.13075   -0.59870    1
    3      0.927D-02      0.214D-02      -267.26110430    555.656439    0.39423   -0.05901   -0.62611    2
    4      0.336D-02      0.912D-03      -267.26470863    555.808698    0.37970   -0.09933   -0.64257    3
    5      0.186D-02      0.363D-03      -267.26527614    555.780053    0.38226   -0.09291   -0.63553    4
    6      0.792D-03      0.110D-03      -267.26535214    555.766287    0.38053   -0.09272   -0.63827    5
    7      0.277D-03      0.510D-04      -267.26537214    555.763282    0.37982   -0.09248   -0.63775    6
    8      0.143D-03      0.272D-04      -267.26537816    555.761332    0.38010   -0.09259   -0.63796    7
    9      0.921D-04      0.115D-04      -267.26537907    555.761646    0.38029   -0.09255   -0.63772    8
   10      0.365D-04      0.500D-05      -267.26537923    555.762256    0.38054   -0.09256   -0.63778    9
   11      0.146D-04      0.196D-05      -267.26537926    555.762099    0.38059   -0.09256   -0.63779    9
   12      0.649D-05      0.669D-06      -267.26537926    555.762233    0.38061   -0.09256   -0.63778    9
   13      0.227D-05      0.226D-06      -267.26537926    555.762149    0.38062   -0.09256   -0.63778    9
   14      0.631D-06      0.755D-07      -267.26537926    555.762157    0.38062   -0.09256   -0.63778    9
   15      0.192D-06      0.299D-07      -267.26537926    555.762153    0.38062   -0.09256   -0.63778    9
   16      0.821D-07      0.144D-07      -267.26537926    555.762155    0.38062   -0.09256   -0.63778    9
   17      0.371D-07      0.746D-08      -267.26537926    555.762155    0.38062   -0.09256   -0.63778    9
   18      0.221D-07      0.340D-08      -267.26537926    555.762155    0.38062   -0.09256   -0.63778    9
   19      0.114D-07      0.133D-08      -267.26537926    555.762155    0.38062   -0.09256   -0.63778    9
   20      0.443D-08      0.564D-09      -267.26537926    555.762155    0.38062   -0.09256   -0.63778    9
   21      0.164D-08      0.285D-09      -267.26537926    555.762155    0.38062   -0.09256   -0.63778    9
   22      0.748D-09      0.161D-09      -267.26537926    555.762155    0.38062   -0.09256   -0.63778    9
   23      0.444D-09      0.792D-10      -267.26537926    555.762155    0.38062   -0.09256   -0.63778    9
   24      0.262D-09      0.315D-10      -267.26537926    555.762155    0.38062   -0.09256   -0.63778    9
   25      0.927D-10      0.128D-10      -267.26537926    555.762155    0.38062   -0.09256   -0.63778    0

 Final alpha occupancy:  21
 Final beta  occupancy:  20

 !RHF STATE 1.1 Energy               -267.265379260115
 Nuclear energy                       183.22180248
 One-electron energy                 -728.36825927
 Two-electron energy                  277.88107753
 Virial quotient                       -1.00155813
 !RHF STATE 1.1 Dipole moment           0.38061913    -0.09256201    -0.63778291
 Dipole moment /Debye                   0.96737397    -0.23525376    -1.62097630

 Orbital energies:

         1.1          2.1          3.1          4.1          5.1          6.1          7.1          8.1          9.1         10.1
    -20.630481   -20.628812   -11.279353   -11.237907   -11.232179    -1.470130    -1.240668    -1.023279    -0.945306    -0.768456

        11.1         12.1         13.1         14.1         15.1         16.1         17.1         18.1         19.1         20.1
     -0.704579    -0.643006    -0.626763    -0.588707    -0.545182    -0.543337    -0.539073    -0.516772    -0.493020    -0.469763

        21.1         22.1         23.1
     -0.352559     0.181296     0.183558


 **********************************************************************************************************************************
 DATASETS  * FILE   NREC   LENGTH (MB)   RECORD NAMES
              1      18        3.17       500      610      700      900      950      970     1000      129      960     1100   
                                          VAR    BASINP    GEOM    SYMINP    ZMAT    AOBASIS   BASIS     P2S    ABASIS      S 
                                         1400     1410     1200     1210     1080     1600     1650     1700   
                                           T        V       H0       H01     AOSYM     SMH    MOLCAS    OPER   

              2       3        0.77       700     1000     2100   
                                         GEOM     BASIS     RHF  

 PROGRAMS   *        TOTAL       RHF       INT
 CPU TIMES  *         1.68      0.87      0.75
 REAL TIME  *         2.22 SEC
 DISK USED  *       321.49 MB      
 SF USED    *         0.04 MB      
 GA USED    *         0.00 MB       (max)       0.00 MB       (current)
 **********************************************************************************************************************************


1PROGRAM * CCSD (Unrestricted open-shell coupled cluster)     Authors: C. Hampel, H.-J. Werner, 1991, M. Deegan, P.J. Knowles, 1992


 Convergence thresholds:  THRVAR = 1.00D-08  THRDEN = 1.00D-10

 CCSD(T)     terms to be evaluated (factor= 1.000)


 Number of core orbitals:           5 (   5 )
 Number of closed-shell orbitals:  15 (  15 )
 Number of active  orbitals:        1 (   1 )
 Number of external orbitals:      84 (  84 )

 Memory could be reduced to 24.91 Mwords without degradation in triples

 Number of N-1 electron functions:              31
 Number of N-2 electron functions:             465
 Number of singly external CSFs:              2635
 Number of doubly external CSFs:           2537250
 Total number of CSFs:                     2539885

 Molecular orbitals read from record     2100.2  Type=RHF/CANONICAL (state 1.1)

 Integral transformation finished. Total CPU:   0.70 sec, npass=  1  Memory used:  12.63 MW

 Starting RMP2 calculation

 ITER.      SQ.NORM     CORR.ENERGY   TOTAL ENERGY   ENERGY CHANGE        DEN1      VAR(S)    VAR(P)  DIIS     TIME
   1      1.24304161    -0.78638345  -268.05176271    -0.78638345    -0.00305046  0.20D-04  0.11D-02  1  1     0.95
   2      1.24568377    -0.78967320  -268.05505246    -0.00328975    -0.00000475  0.54D-06  0.19D-05  2  2     1.18
   3      1.24574935    -0.78971528  -268.05509454    -0.00004209    -0.00000003  0.16D-07  0.68D-08  3  3     1.44
   4      1.24575031    -0.78971528  -268.05509454    -0.00000000    -0.00000000  0.27D-09  0.38D-10  4  4     1.72
   5      1.24575039    -0.78971532  -268.05509458    -0.00000003    -0.00000000  0.25D-11  0.66D-12  5  5     2.02
   6      1.24575041    -0.78971532  -268.05509458    -0.00000001    -0.00000000  0.28D-13  0.87D-14  6  6     2.34
   7      1.24575041    -0.78971532  -268.05509458     0.00000000    -0.00000000  0.47D-15  0.12D-15  6  1     2.66
   8      1.24575041    -0.78971532  -268.05509458     0.00000000    -0.00000000  0.60D-17  0.13D-17  6  2     2.99

 Norm of t1 vector:      0.03891127      S-energy:    -0.00226917      T1 diagnostic:  0.00055059
 Norm of t2 vector:      0.49420271      P-energy:    -0.78744615
                                         Alpha-Beta:  -0.59342610
                                         Alpha-Alpha: -0.10094028
                                         Beta-Beta:   -0.09307977

 Spin contamination <S**2-Sz**2-Sz>     0.00103957
  Reference energy                   -267.265379260115
  RHF-RMP2 correlation energy          -0.789715322443
 !RHF-RMP2 energy                    -268.055094582558

 Starting UCCSD calculation

 ITER.      SQ.NORM     CORR.ENERGY   TOTAL ENERGY   ENERGY CHANGE        DEN1      VAR(S)    VAR(P)  DIIS     TIME
   1      1.26281662    -0.80905312  -268.07443238    -0.80905312    -0.02515921  0.38D-02  0.59D-02  1  1     7.60
   2      1.29159690    -0.83646567  -268.10184493    -0.02741255    -0.00201177  0.22D-03  0.66D-03  2  2    12.19
   3      1.30154150    -0.84096501  -268.10634428    -0.00449935    -0.00032476  0.19D-03  0.56D-04  3  3    16.82
   4      1.30645611    -0.84244270  -268.10782196    -0.00147769    -0.00007209  0.43D-04  0.14D-04  4  4    21.47
   5      1.30918604    -0.84283092  -268.10821018    -0.00038822    -0.00002366  0.19D-04  0.32D-05  5  5    26.17
   6      1.31112414    -0.84303536  -268.10841462    -0.00020445    -0.00000645  0.42D-05  0.12D-05  6  6    30.91
   7      1.31207194    -0.84309407  -268.10847333    -0.00005871    -0.00000207  0.14D-05  0.37D-06  6  2    35.71
   8      1.31251212    -0.84313668  -268.10851594    -0.00004261    -0.00000065  0.44D-06  0.11D-06  6  1    42.04
   9      1.31269629    -0.84314122  -268.10852048    -0.00000455    -0.00000022  0.15D-06  0.35D-07  6  4    48.35
  10      1.31275906    -0.84314415  -268.10852341    -0.00000292    -0.00000005  0.34D-07  0.95D-08  6  3    54.67
  11      1.31278838    -0.84314288  -268.10852214     0.00000127    -0.00000002  0.13D-07  0.28D-08  6  5    60.98
  12      1.31279868    -0.84314261  -268.10852187     0.00000026    -0.00000000  0.26D-08  0.95D-09  6  6    66.91
  13      1.31279754    -0.84314170  -268.10852096     0.00000091    -0.00000000  0.96D-09  0.28D-09  6  2    72.65
  14      1.31279235    -0.84314086  -268.10852012     0.00000084    -0.00000000  0.21D-09  0.67D-10  6  1    78.39
  15      1.31278828    -0.84314027  -268.10851953     0.00000058    -0.00000000  0.78D-10  0.19D-10  6  4    84.15
  16      1.31278510    -0.84313989  -268.10851915     0.00000038    -0.00000000  0.28D-10  0.63D-11  6  3    89.88
  17      1.31278290    -0.84313965  -268.10851891     0.00000024    -0.00000000  0.10D-10  0.24D-11  6  5    95.30
  18      1.31278200    -0.84313959  -268.10851885     0.00000006    -0.00000000  0.40D-11  0.86D-12  6  6   101.04
  19      1.31278139    -0.84313956  -268.10851882     0.00000003    -0.00000000  0.16D-11  0.37D-12  6  2   106.56
  20      1.31278107    -0.84313954  -268.10851880     0.00000001    -0.00000000  0.59D-12  0.13D-12  6  1   112.30
  21      1.31278091    -0.84313953  -268.10851879     0.00000001    -0.00000000  0.28D-12  0.57D-13  6  4   118.05
  22      1.31278079    -0.84313953  -268.10851879     0.00000001    -0.00000000  0.73D-13  0.21D-13  6  3   123.78
  23      1.31278073    -0.84313952  -268.10851878     0.00000000    -0.00000000  0.21D-13  0.62D-14  6  5   129.52
  24      1.31278073    -0.84313952  -268.10851878    -0.00000000    -0.00000000  0.67D-14  0.22D-14  6  6   135.25
  25      1.31278073    -0.84313953  -268.10851879    -0.00000000    -0.00000000  0.21D-14  0.52D-15  6  2   140.99
  26      1.31278074    -0.84313953  -268.10851879    -0.00000000    -0.00000000  0.77D-15  0.15D-15  6  1   146.71
  27      1.31278075    -0.84313953  -268.10851879    -0.00000000    -0.00000000  0.20D-15  0.62D-16  6  3   152.45
  28      1.31278075    -0.84313953  -268.10851879    -0.00000000    -0.00000000  0.29D-16  0.11D-16  6  4   158.18
  29      1.31278076    -0.84313953  -268.10851879    -0.00000000    -0.00000000  0.70D-17  0.29D-17  6  5   163.92
  30      1.31278076    -0.84313953  -268.10851879    -0.00000000    -0.00000000  0.15D-17  0.54D-18  6  6   169.34
  31      1.31278076    -0.84313953  -268.10851879    -0.00000000    -0.00000000  0.35D-18  0.10D-18  6  2   175.07

 Norm of t1 vector:      0.13870180      S-energy:    -0.00281823      T1 diagnostic:  0.01616915
                                                                       D1 diagnostic:  0.06284663
 Norm of t2 vector:      0.54179569      P-energy:    -0.84032130
                                         Alpha-Beta:  -0.66487922
                                         Alpha-Alpha: -0.09147208
                                         Beta-Beta:   -0.08396999

 Spin contamination <S**2-Sz**2-Sz>     0.00216720

 Memory could be reduced to 28.85 Mwords without degradation in triples
 

 RESULTS
 =======

  Reference energy                   -267.265379260115
  UCCSD singles energy                 -0.002818231854
  UCCSD pair energy                    -0.840321295046
  UCCSD correlation energy             -0.843139526900
  Triples (T) contribution             -0.024977777512
  Total correlation energy             -0.868117304412
 
  RHF-UCCSD energy                   -268.108518787015
  RHF-UCCSD[T] energy                -268.134833016158
  RHF-UCCSD-T energy                 -268.133074769641
 !RHF-UCCSD(T) energy                -268.133496564527

 Program statistics:

 Available memory in ccsd:               999997692
 Min. memory needed in ccsd:               7337057
 Max. memory used in ccsd:                10523002
 Max. memory used in cckext:              10867977 (31 integral passes)
 Max. memory used in cckint:              12633073 ( 1 integral passes)



 **********************************************************************************************************************************
 DATASETS  * FILE   NREC   LENGTH (MB)   RECORD NAMES
              1      18        3.17       500      610      700      900      950      970     1000      129      960     1100   
                                          VAR    BASINP    GEOM    SYMINP    ZMAT    AOBASIS   BASIS     P2S    ABASIS      S 
                                         1400     1410     1200     1210     1080     1600     1650     1700   
                                           T        V       H0       H01     AOSYM     SMH    MOLCAS    OPER   

              2       3        0.77       700     1000     2100   
                                         GEOM     BASIS     RHF  

 PROGRAMS   *        TOTAL  UCCSD(T)       RHF       INT
 CPU TIMES  *       216.50    214.82      0.87      0.75
 REAL TIME  *       225.71 SEC
 DISK USED  *         1.29 GB      
 SF USED    *       553.73 MB      
 GA USED    *         0.00 MB       (max)       0.00 MB       (current)
 **********************************************************************************************************************************

        UCCSD(T)        RHF-SCF 
   -268.13349656   -267.26537926
 **********************************************************************************************************************************
 Variable memory released
