
 Primary working directories    : /tmp/320938.781.gen4.q
 Secondary working directories  : /tmp/320938.781.gen4.q
 Wavefunction directory         : /home/vulcan/mel64643/wfu/
 Main file repository           : /tmp/320938.781.gen4.q/

 ARCHNAME  : Linux/x86_64
 FC        : /opt/intel/compilers_and_libraries_2016.1.150/linux/bin/intel64/ifort
 FCVERSION : 16.0.1
 BLASLIB   : -mkl
 id        : ccgc

 Nodes     nprocs
 n033         3
 Number of processes for MPI-2 version of Molpro:   nprocs(total)=    4   nprocs(compute)=    3   nprocs(helper)=    1
 ga_uses_ma=false, calling ma_init with nominal heap.
 GA-space will be limited to   8.0 MW (determined by -G option)

 Using customized tuning parameters: mindgm=10; mindgv=16; mindgc=4; mindgr=1; noblas=0; mincuda=1000; minvec=7
 default implementation of scratch files=sf  

 ***,Frequencies for min3
 memory,1000,m
 gthresh,energy=1.0d-10,orbital=1.0d-10,oneint=1.0d-16,twoint=1.0d-16,optgrad=1.0d-6,compress=1.0d-13
 geomtyp=xyz
 
  geometry = {
  12
  arbitrary comment
     C    1.777650235407    0.711470272662   -0.047336950898
     C    0.491677678169   -0.059972913015   -0.196495689703
     C    0.450258902954   -1.536276018622    0.101414448691
     O   -0.560932097504    0.727212152720    0.254456641717
     O   -1.837980486284    0.092195289556   -0.120525242354
     H    2.585226395313    0.211570416668   -0.611449771108
     H    1.660218826633    1.745224213728   -0.426781044275
     H    2.095272930528    0.773427673412    1.017524377932
     H   -0.505140161863   -1.983133910567   -0.219916592310
     H    1.281617721420   -2.047868811136   -0.416957178106
     H    0.561536795368   -1.719525665465    1.194895229980
     H   -1.987903270453    0.550623260889   -0.967154509031
  }
 
 basis=cc-pvdz
 {rhf;maxit,200}
 {uccsd(t);maxit,200}

 Variables initialized (661), CPU time= 0.00 sec
 Commands  initialized (458), CPU time= 0.01 sec, 486 directives.
 Default parameters read. Elapsed time= 0.06 sec

 Checking input...
 Passed
1


                                         ***  PROGRAM SYSTEM MOLPRO  ***
                         Copyright, University College Cardiff Consultants Limited, 2008

                                    Version 2010.1 linked May 16 2016 07:17:05


 **********************************************************************************************************************************
 LABEL *   Frequencies for min3                                                          
 Linux-4.4.3/n033(x86_64) 64 bit mpp version                                             DATE: 07-Mar-20          TIME: 05:34:05  
 **********************************************************************************************************************************

 SHA1:             9e8077add272b0f3cad6f7df79ec5211205f459d
 **********************************************************************************************************************************

 THRESHOLDS:

 ZERO    =  1.00D-12  ONEINT  =  1.00D-16  TWOINT  =  1.00D-16  PREFAC  =  1.00D-14  LOCALI  =  1.00D-09  EORDER  =  1.00D-04
 ENERGY  =  1.00D-10  ETEST   =  0.00D+00  EDENS   =  0.00D+00  THRDEDEF=  1.00D-06  GRADIENT=  1.00D-02  STEP    =  1.00D-03
 ORBITAL =  1.00D-10  CIVEC   =  1.00D-05  COEFF   =  1.00D-04  PRINTCI =  5.00D-02  PUNCHCI =  9.90D+01  OPTGRAD =  1.00D-06
 OPTENERG=  1.00D-06  OPTSTEP =  3.00D-04  THRGRAD =  1.00D-10  COMPRESS=  1.00D-13  VARMIN  =  1.00D-07  VARMAX  =  1.00D-03
 THRDOUB =  0.00D+00  THRDIV  =  1.00D-05  THRRED  =  1.00D-07  THRPSP  =  1.00D+00  THRDC   =  1.00D-10  THRCS   =  1.00D-10
 THRNRM  =  1.00D-08  THREQ   =  0.00D+00  THRDE   =  1.00D+00  THRREF  =  1.00D-05  SPARFAC =  1.00D+00  THRDLP  =  1.00D-07
 THRDIA  =  1.00D-10  THRDLS  =  1.00D-07  THRGPS  =  0.00D+00  THRKEX  =  0.00D+00  THRDIS  =  2.00D-01  THRVAR  =  1.00D-10
 THRLOC  =  1.00D-06  THRGAP  =  1.00D-06  THRLOCT = -1.00D+00  THRGAPT = -1.00D+00  THRORB  =  1.00D-06  THRMLTP =  0.00D+00
 THRCPQCI=  1.00D-10  KEXTA   =  0.00D+00  THRCOARS=  0.00D+00  SYMTOL  =  1.00D-06  GRADTOL =  1.00D-06  THROVL  =  1.00D-08
 THRORTH =  1.00D-08  GRID    =  1.00D-06  GRIDMAX =  1.00D-03  DTMAX   =  0.00D+00

 SETTING GEOMTYP        =    XYZ

 Variable memory set to 1000000000 words,  buffer space   230000 words

 SETTING BASIS          =    CC-PVDZ


 Recomputing integrals since basis changed


 Using spherical harmonics

 Library entry C      S cc-pVDZ              selected for orbital group  1
 Library entry C      P cc-pVDZ              selected for orbital group  1
 Library entry C      D cc-pVDZ              selected for orbital group  1
 Library entry O      S cc-pVDZ              selected for orbital group  2
 Library entry O      P cc-pVDZ              selected for orbital group  2
 Library entry O      D cc-pVDZ              selected for orbital group  2
 Library entry H      S cc-pVDZ              selected for orbital group  3
 Library entry H      P cc-pVDZ              selected for orbital group  3

1PROGRAM * SEWARD (Integral evaluation for generally contracted gaussian basis sets)     Author: Roland Lindh, 1990

 Geometry written to block  1 of record 700


 Point group  C1  



 ATOMIC COORDINATES

 NR  ATOM    CHARGE       X              Y              Z

   1  C       6.00    3.359272102    1.344483966   -0.089453873
   2  C       6.00    0.929136157   -0.113332381   -0.371323040
   3  C       6.00    0.850866015   -2.903140937    0.191645534
   4  O       8.00   -1.060008043    1.374231808    0.480853365
   5  O       8.00   -3.473279754    0.174223848   -0.227759700
   6  H       1.00    4.885369875    0.399810145   -1.155472611
   7  H       1.00    3.137358901    3.297995802   -0.806499292
   8  H       1.00    3.959492009    1.461566485    1.922842406
   9  H       1.00   -0.954576564   -3.747579973   -0.415582131
  10  H       1.00    2.421906499   -3.869911206   -0.787934875
  11  H       1.00    1.061150756   -3.249432584    2.258024740
  12  H       1.00   -3.756592757    1.040527165   -1.827657149

 Bond lengths in Bohr (Angstrom)

 1-2  2.847848213  1-6  2.087529398  1-7  2.092751322  1-8  2.103166320  2-3  2.847119880
     ( 1.507016369)     ( 1.104672981)     ( 1.107436304)     ( 1.112947683)     ( 1.506630952)

  2- 4  2.625975340   3- 9  2.083608799   3-10  2.088633700   3-11  2.105720922   4- 5  2.786760114
       ( 1.389606301)       ( 1.102598289)       ( 1.105257352)       ( 1.114299521)       ( 1.474689939)

  5-12  1.841309192
       ( 0.974378859)

 Bond angles

  1-2-3  120.36352194   1-2-4  108.92199516   2-1-6  109.97628820   2-1-7  110.69811314

  2- 1- 8  111.51384493   2- 3- 9  111.30389706   2- 3-10  109.88532310   2- 3-11  110.63634927

  2- 4- 5  109.23946114   3- 2- 4  118.03986083   4- 5-12   98.71904467   6- 1- 7  108.96402056

  6- 1- 8  107.76744804   7- 1- 8  107.82589541   9- 3-10  109.11669760   9- 3-11  107.81042029

 10- 3-11  107.99935504

 NUCLEAR CHARGE:                   41
 NUMBER OF PRIMITIVE AOS:         184
 NUMBER OF SYMMETRY AOS:          179
 NUMBER OF CONTRACTIONS:          105   ( 105A   )
 NUMBER OF CORE ORBITALS:           5   (   5A   )
 NUMBER OF VALENCE ORBITALS:       27   (  27A   )


 NUCLEAR REPULSION ENERGY  183.19955772


 Eigenvalues of metric

         1 0.346E-02 0.436E-02 0.105E-01 0.141E-01 0.182E-01 0.214E-01 0.332E-01 0.346E-01


 Contracted 2-electron integrals neglected if value below      1.0D-16
 AO integral compression algorithm  1   Integral accuracy      1.0D-16

     127.140 MB (compressed) written to integral file ( 93.6%)

     Node minimum: 35.652 MB, node maximum: 54.788 MB


 NUMBER OF SORTED TWO-ELECTRON INTEGRALS:    5164320.     BUFFER LENGTH:  32768
 NUMBER OF SEGMENTS:   1  SEGMENT LENGTH:    5164320      RECORD LENGTH: 524288

 Memory used in sort:       5.72 MW

 SORT1 READ    17075251. AND WROTE     5135890. INTEGRALS IN     15 RECORDS. CPU TIME:     0.36 SEC, REAL TIME:     0.40 SEC
 SORT2 READ    15396567. AND WROTE    15487395. INTEGRALS IN    408 RECORDS. CPU TIME:     0.12 SEC, REAL TIME:     0.16 SEC

 Node minimum:     5160610.  Node maximum:     5164320. integrals

 OPERATOR DM      FOR CENTER  0  COORDINATES:    0.000000    0.000000    0.000000


 **********************************************************************************************************************************
 DATASETS  * FILE   NREC   LENGTH (MB)   RECORD NAMES
              1      18        3.17       500      610      700      900      950      970     1000      129      960     1100   
                                          VAR    BASINP    GEOM    SYMINP    ZMAT    AOBASIS   BASIS     P2S    ABASIS      S 
                                         1400     1410     1200     1210     1080     1600     1650     1700   
                                           T        V       H0       H01     AOSYM     SMH    MOLCAS    OPER   

 PROGRAMS   *        TOTAL       INT
 CPU TIMES  *         1.75      1.69
 REAL TIME  *         2.05 SEC
 DISK USED  *       316.18 MB      
 GA USED    *         0.00 MB       (max)       0.00 MB       (current)
 **********************************************************************************************************************************

1PROGRAM * RHF-SCF (OPEN SHELL)       Authors: W. Meyer, H.-J. Werner


 NUMBER OF ELECTRONS:      21+   20-    SPACE SYMMETRY=1    SPIN SYMMETRY: Doublet 
 CONVERGENCE THRESHOLDS:    1.00E-10 (Density)    1.00E-11 (Energy)
 MAX. NUMBER OF ITERATIONS:      200
 INTERPOLATION TYPE:            DIIS
 INTERPOLATION STEPS:              2 (START)      1 (STEP)
 LEVEL SHIFTS:                 -0.30 (CLOSED)  0.00 (OPEN) 



 Orbital guess generated from atomic densities. Full valence occupancy:   32

 Molecular orbital dump at record        2100.2

 ITERATION    DDIFF          GRAD             ENERGY        2-EL.EN.            DIPOLE MOMENTS         DIIS
    1      0.000D+00      0.000D+00      -267.17820751    555.771558    0.56995    0.04996   -0.74946    0
    2      0.000D+00      0.617D-02      -267.24887283    555.695605    0.41404   -0.13152   -0.59853    1
    3      0.927D-02      0.214D-02      -267.26105146    555.613489    0.39394   -0.05974   -0.62590    2
    4      0.336D-02      0.912D-03      -267.26466152    555.765608    0.37937   -0.10004   -0.64224    3
    5      0.186D-02      0.363D-03      -267.26523101    555.737007    0.38194   -0.09363   -0.63520    4
    6      0.792D-03      0.110D-03      -267.26530754    555.723254    0.38020   -0.09345   -0.63794    5
    7      0.277D-03      0.512D-04      -267.26532773    555.720216    0.37949   -0.09321   -0.63743    6
    8      0.144D-03      0.273D-04      -267.26533380    555.718276    0.37976   -0.09333   -0.63764    7
    9      0.925D-04      0.115D-04      -267.26533472    555.718580    0.37994   -0.09329   -0.63740    8
   10      0.366D-04      0.502D-05      -267.26533488    555.719197    0.38020   -0.09330   -0.63746    9
   11      0.147D-04      0.197D-05      -267.26533490    555.719039    0.38025   -0.09329   -0.63747    9
   12      0.652D-05      0.671D-06      -267.26533491    555.719173    0.38027   -0.09329   -0.63746    9
   13      0.227D-05      0.226D-06      -267.26533491    555.719089    0.38027   -0.09329   -0.63746    9
   14      0.632D-06      0.758D-07      -267.26533491    555.719098    0.38027   -0.09330   -0.63746    9
   15      0.193D-06      0.300D-07      -267.26533491    555.719094    0.38028   -0.09330   -0.63746    9
   16      0.825D-07      0.145D-07      -267.26533491    555.719095    0.38028   -0.09330   -0.63746    9
   17      0.375D-07      0.751D-08      -267.26533491    555.719095    0.38028   -0.09330   -0.63746    9
   18      0.222D-07      0.342D-08      -267.26533491    555.719095    0.38028   -0.09330   -0.63746    9
   19      0.114D-07      0.133D-08      -267.26533491    555.719095    0.38028   -0.09330   -0.63746    9
   20      0.444D-08      0.568D-09      -267.26533491    555.719095    0.38028   -0.09330   -0.63746    9
   21      0.166D-08      0.287D-09      -267.26533491    555.719095    0.38028   -0.09330   -0.63746    9
   22      0.756D-09      0.162D-09      -267.26533491    555.719095    0.38028   -0.09330   -0.63746    9
   23      0.447D-09      0.798D-10      -267.26533491    555.719095    0.38028   -0.09330   -0.63746    9
   24      0.264D-09      0.317D-10      -267.26533491    555.719095    0.38028   -0.09330   -0.63746    9
   25      0.935D-10      0.129D-10      -267.26533491    555.719095    0.38028   -0.09330   -0.63746    0

 Final alpha occupancy:  21
 Final beta  occupancy:  20

 !RHF STATE 1.1 Energy               -267.265334908056
 Nuclear energy                       183.19955772
 One-electron energy                 -728.32444037
 Two-electron energy                  277.85954774
 Virial quotient                       -1.00157014
 !RHF STATE 1.1 Dipole moment           0.38027638    -0.09329597    -0.63746259
 Dipole moment /Debye                   0.96650285    -0.23711918    -1.62016218

 Orbital energies:

         1.1          2.1          3.1          4.1          5.1          6.1          7.1          8.1          9.1         10.1
    -20.630487   -20.628831   -11.279334   -11.238101   -11.232258    -1.470173    -1.240707    -1.023094    -0.945181    -0.768442

        11.1         12.1         13.1         14.1         15.1         16.1         17.1         18.1         19.1         20.1
     -0.704599    -0.642822    -0.626763    -0.588727    -0.545061    -0.543320    -0.539158    -0.516699    -0.493020    -0.469734

        21.1         22.1         23.1
     -0.352324     0.181228     0.183558


 **********************************************************************************************************************************
 DATASETS  * FILE   NREC   LENGTH (MB)   RECORD NAMES
              1      18        3.17       500      610      700      900      950      970     1000      129      960     1100   
                                          VAR    BASINP    GEOM    SYMINP    ZMAT    AOBASIS   BASIS     P2S    ABASIS      S 
                                         1400     1410     1200     1210     1080     1600     1650     1700   
                                           T        V       H0       H01     AOSYM     SMH    MOLCAS    OPER   

              2       3        0.77       700     1000     2100   
                                         GEOM     BASIS     RHF  

 PROGRAMS   *        TOTAL       RHF       INT
 CPU TIMES  *         3.73      1.98      1.69
 REAL TIME  *         4.20 SEC
 DISK USED  *       332.75 MB      
 SF USED    *         0.04 MB      
 GA USED    *         0.00 MB       (max)       0.00 MB       (current)
 **********************************************************************************************************************************


1PROGRAM * CCSD (Unrestricted open-shell coupled cluster)     Authors: C. Hampel, H.-J. Werner, 1991, M. Deegan, P.J. Knowles, 1992


 Convergence thresholds:  THRVAR = 1.00D-08  THRDEN = 1.00D-10

 CCSD(T)     terms to be evaluated (factor= 1.000)


 Number of core orbitals:           5 (   5 )
 Number of closed-shell orbitals:  15 (  15 )
 Number of active  orbitals:        1 (   1 )
 Number of external orbitals:      84 (  84 )

 Memory could be reduced to 24.91 Mwords without degradation in triples

 Number of N-1 electron functions:              31
 Number of N-2 electron functions:             465
 Number of singly external CSFs:              2635
 Number of doubly external CSFs:           2537250
 Total number of CSFs:                     2539885

 Molecular orbitals read from record     2100.2  Type=RHF/CANONICAL (state 1.1)

 Integral transformation finished. Total CPU:   1.60 sec, npass=  1  Memory used:  12.63 MW

 Starting RMP2 calculation

 ITER.      SQ.NORM     CORR.ENERGY   TOTAL ENERGY   ENERGY CHANGE        DEN1      VAR(S)    VAR(P)  DIIS     TIME
   1      1.24307827    -0.78641208  -268.05174699    -0.78641208    -0.00305085  0.20D-04  0.11D-02  1  1     2.10
   2      1.24572104    -0.78970225  -268.05503716    -0.00329017    -0.00000475  0.54D-06  0.19D-05  2  2     2.52
   3      1.24578661    -0.78974433  -268.05507924    -0.00004208    -0.00000003  0.16D-07  0.68D-08  3  3     2.97
   4      1.24578757    -0.78974433  -268.05507924    -0.00000000    -0.00000000  0.27D-09  0.38D-10  4  4     3.45
   5      1.24578765    -0.78974437  -268.05507927    -0.00000003    -0.00000000  0.25D-11  0.65D-12  5  5     3.96
   6      1.24578766    -0.78974437  -268.05507928    -0.00000001    -0.00000000  0.28D-13  0.87D-14  6  6     4.50
   7      1.24578766    -0.78974437  -268.05507928     0.00000000    -0.00000000  0.47D-15  0.12D-15  6  1     5.05
   8      1.24578766    -0.78974437  -268.05507928     0.00000000    -0.00000000  0.60D-17  0.13D-17  6  2     5.59

 Norm of t1 vector:      0.03893194      S-energy:    -0.00227141      T1 diagnostic:  0.00055024
 Norm of t2 vector:      0.49423878      P-energy:    -0.78747296
                                         Alpha-Beta:  -0.59345294
                                         Alpha-Alpha: -0.10094092
                                         Beta-Beta:   -0.09307909

 Spin contamination <S**2-Sz**2-Sz>     0.00104039
  Reference energy                   -267.265334908056
  RHF-RMP2 correlation energy          -0.789744370986
 !RHF-RMP2 energy                    -268.055079279042

 Starting UCCSD calculation

 ITER.      SQ.NORM     CORR.ENERGY   TOTAL ENERGY   ENERGY CHANGE        DEN1      VAR(S)    VAR(P)  DIIS     TIME
   1      1.26286079    -0.80908422  -268.07441913    -0.80908422    -0.02516274  0.38D-02  0.59D-02  1  1    15.19
   2      1.29164948    -0.83650134  -268.10183625    -0.02741712    -0.00201208  0.22D-03  0.66D-03  2  2    21.89
   3      1.30159698    -0.84100212  -268.10633703    -0.00450078    -0.00032477  0.19D-03  0.56D-04  3  3    29.35
   4      1.30651237    -0.84248000  -268.10781491    -0.00147788    -0.00007211  0.43D-04  0.14D-04  4  4    38.86
   5      1.30924281    -0.84286822  -268.10820313    -0.00038822    -0.00002368  0.19D-04  0.32D-05  5  5    45.69
   6      1.31118265    -0.84307277  -268.10840767    -0.00020454    -0.00000646  0.42D-05  0.12D-05  6  6    52.60
   7      1.31213239    -0.84313156  -268.10846647    -0.00005879    -0.00000208  0.14D-05  0.37D-06  6  2    59.39
   8      1.31257421    -0.84317426  -268.10850917    -0.00004270    -0.00000065  0.45D-06  0.11D-06  6  1    66.24
   9      1.31275949    -0.84317885  -268.10851376    -0.00000459    -0.00000022  0.15D-06  0.35D-07  6  4    73.08
  10      1.31282272    -0.84318178  -268.10851669    -0.00000294    -0.00000005  0.35D-07  0.95D-08  6  3    79.92
  11      1.31285223    -0.84318052  -268.10851543     0.00000126    -0.00000002  0.13D-07  0.28D-08  6  5    86.76
  12      1.31286262    -0.84318026  -268.10851517     0.00000026    -0.00000000  0.26D-08  0.95D-09  6  6    93.61
  13      1.31286147    -0.84317935  -268.10851425     0.00000092    -0.00000000  0.96D-09  0.29D-09  6  2   100.47
  14      1.31285627    -0.84317850  -268.10851341     0.00000084    -0.00000000  0.21D-09  0.68D-10  6  1   107.31
  15      1.31285219    -0.84317792  -268.10851282     0.00000059    -0.00000000  0.78D-10  0.19D-10  6  4   114.16
  16      1.31284901    -0.84317753  -268.10851244     0.00000038    -0.00000000  0.28D-10  0.63D-11  6  3   121.00
  17      1.31284680    -0.84317729  -268.10851220     0.00000024    -0.00000000  0.10D-10  0.24D-11  6  5   127.83
  18      1.31284590    -0.84317723  -268.10851214     0.00000006    -0.00000000  0.41D-11  0.87D-12  6  6   134.65
  19      1.31284529    -0.84317720  -268.10851211     0.00000003    -0.00000000  0.16D-11  0.37D-12  6  2   141.45
  20      1.31284497    -0.84317719  -268.10851209     0.00000001    -0.00000000  0.60D-12  0.13D-12  6  1   148.25
  21      1.31284481    -0.84317718  -268.10851208     0.00000001    -0.00000000  0.28D-12  0.58D-13  6  4   155.11
  22      1.31284468    -0.84317717  -268.10851208     0.00000001    -0.00000000  0.74D-13  0.21D-13  6  3   161.95
  23      1.31284463    -0.84317717  -268.10851207     0.00000000    -0.00000000  0.21D-13  0.63D-14  6  5   168.78
  24      1.31284462    -0.84317717  -268.10851207    -0.00000000    -0.00000000  0.68D-14  0.23D-14  6  6   175.63
  25      1.31284462    -0.84317717  -268.10851208    -0.00000000    -0.00000000  0.21D-14  0.52D-15  6  2   182.45
  26      1.31284463    -0.84317717  -268.10851208    -0.00000000    -0.00000000  0.77D-15  0.15D-15  6  1   189.31
  27      1.31284464    -0.84317717  -268.10851208    -0.00000000    -0.00000000  0.20D-15  0.63D-16  6  3   196.12
  28      1.31284464    -0.84317717  -268.10851208    -0.00000000    -0.00000000  0.30D-16  0.11D-16  6  4   202.94
  29      1.31284465    -0.84317717  -268.10851208    -0.00000000    -0.00000000  0.71D-17  0.29D-17  6  5   209.79
  30      1.31284465    -0.84317717  -268.10851208    -0.00000000    -0.00000000  0.15D-17  0.54D-18  6  6   216.62
  31      1.31284465    -0.84317717  -268.10851208    -0.00000000    -0.00000000  0.35D-18  0.10D-18  6  2   223.46

 Norm of t1 vector:      0.13872742      S-energy:    -0.00282117      T1 diagnostic:  0.01617036
                                                                       D1 diagnostic:  0.06282494
 Norm of t2 vector:      0.54184809      P-energy:    -0.84035600
                                         Alpha-Beta:  -0.66491801
                                         Alpha-Alpha: -0.09147082
                                         Beta-Beta:   -0.08396717

 Spin contamination <S**2-Sz**2-Sz>     0.00217164

 Memory could be reduced to 28.85 Mwords without degradation in triples
 

 RESULTS
 =======

  Reference energy                   -267.265334908056
  UCCSD singles energy                 -0.002821166922
  UCCSD pair energy                    -0.840356002289
  UCCSD correlation energy             -0.843177169211
  Triples (T) contribution             -0.024981803569
  Total correlation energy             -0.868158972780
 
  RHF-UCCSD energy                   -268.108512077267
  RHF-UCCSD[T] energy                -268.134830261978
  RHF-UCCSD-T energy                 -268.133072152177
 !RHF-UCCSD(T) energy                -268.133493880836

 Program statistics:

 Available memory in ccsd:               999997692
 Min. memory needed in ccsd:               7337057
 Max. memory used in ccsd:                10523002
 Max. memory used in cckext:              10867977 (31 integral passes)
 Max. memory used in cckint:              12633073 ( 1 integral passes)



 **********************************************************************************************************************************
 DATASETS  * FILE   NREC   LENGTH (MB)   RECORD NAMES
              1      18        3.17       500      610      700      900      950      970     1000      129      960     1100   
                                          VAR    BASINP    GEOM    SYMINP    ZMAT    AOBASIS   BASIS     P2S    ABASIS      S 
                                         1400     1410     1200     1210     1080     1600     1650     1700   
                                           T        V       H0       H01     AOSYM     SMH    MOLCAS    OPER   

              2       3        0.77       700     1000     2100   
                                         GEOM     BASIS     RHF  

 PROGRAMS   *        TOTAL  UCCSD(T)       RHF       INT
 CPU TIMES  *       288.26    284.53      1.98      1.69
 REAL TIME  *       301.83 SEC
 DISK USED  *         1.30 GB      
 SF USED    *       553.73 MB      
 GA USED    *         0.00 MB       (max)       0.00 MB       (current)
 **********************************************************************************************************************************

        UCCSD(T)        RHF-SCF 
   -268.13349388   -267.26533491
 **********************************************************************************************************************************
 Variable memory released
