
 Primary working directories    : /tmp/320938.547.gen4.q
 Secondary working directories  : /tmp/320938.547.gen4.q
 Wavefunction directory         : /home/vulcan/mel64643/wfu/
 Main file repository           : /tmp/320938.547.gen4.q/

 ARCHNAME  : Linux/x86_64
 FC        : /opt/intel/compilers_and_libraries_2016.1.150/linux/bin/intel64/ifort
 FCVERSION : 16.0.1
 BLASLIB   : -mkl
 id        : ccgc

 Nodes     nprocs
 n056         3
 Number of processes for MPI-2 version of Molpro:   nprocs(total)=    4   nprocs(compute)=    3   nprocs(helper)=    1
 ga_uses_ma=false, calling ma_init with nominal heap.
 GA-space will be limited to   8.0 MW (determined by -G option)

 Using customized tuning parameters: mindgm=10; mindgv=16; mindgc=4; mindgr=1; noblas=0; mincuda=1000; minvec=7
 default implementation of scratch files=sf  

 ***,Frequencies for min3
 memory,1000,m
 gthresh,energy=1.0d-10,orbital=1.0d-10,oneint=1.0d-16,twoint=1.0d-16,optgrad=1.0d-6,compress=1.0d-13
 geomtyp=xyz
 
  geometry = {
  12
  arbitrary comment
     C    1.776964391707    0.711398808326   -0.047331391796
     C    0.491811976407   -0.059992870174   -0.196493901896
     C    0.450332819107   -1.536294019674    0.100990929623
     O   -0.560782022909    0.727304203846    0.254454026400
     O   -1.837824826465    0.092234677855   -0.120457704707
     H    2.585451282942    0.211143807636   -0.610871621698
     H    1.660520325338    1.742655772393   -0.426629001100
     H    2.095017506484    0.774326855747    1.017956735310
     H   -0.504895537250   -1.982879778917   -0.221009282082
     H    1.281355943666   -2.048136945754   -0.415344516082
     H    0.562234070371   -1.717896972582    1.196550323827
     H   -1.988019531263    0.550321275468   -0.966567199010
  }
 
 basis=cc-pvdz
 {rhf;maxit,200}
 {uccsd(t);maxit,200}

 Variables initialized (661), CPU time= 0.00 sec
 Commands  initialized (458), CPU time= 0.01 sec, 486 directives.
 Default parameters read. Elapsed time= 0.06 sec

 Checking input...
 Passed
1


                                         ***  PROGRAM SYSTEM MOLPRO  ***
                         Copyright, University College Cardiff Consultants Limited, 2008

                                    Version 2010.1 linked May 16 2016 07:17:05


 **********************************************************************************************************************************
 LABEL *   Frequencies for min3                                                          
 Linux-4.4.3/n056(x86_64) 64 bit mpp version                                             DATE: 07-Mar-20          TIME: 04:11:20  
 **********************************************************************************************************************************

 SHA1:             9e8077add272b0f3cad6f7df79ec5211205f459d
 **********************************************************************************************************************************

 THRESHOLDS:

 ZERO    =  1.00D-12  ONEINT  =  1.00D-16  TWOINT  =  1.00D-16  PREFAC  =  1.00D-14  LOCALI  =  1.00D-09  EORDER  =  1.00D-04
 ENERGY  =  1.00D-10  ETEST   =  0.00D+00  EDENS   =  0.00D+00  THRDEDEF=  1.00D-06  GRADIENT=  1.00D-02  STEP    =  1.00D-03
 ORBITAL =  1.00D-10  CIVEC   =  1.00D-05  COEFF   =  1.00D-04  PRINTCI =  5.00D-02  PUNCHCI =  9.90D+01  OPTGRAD =  1.00D-06
 OPTENERG=  1.00D-06  OPTSTEP =  3.00D-04  THRGRAD =  1.00D-10  COMPRESS=  1.00D-13  VARMIN  =  1.00D-07  VARMAX  =  1.00D-03
 THRDOUB =  0.00D+00  THRDIV  =  1.00D-05  THRRED  =  1.00D-07  THRPSP  =  1.00D+00  THRDC   =  1.00D-10  THRCS   =  1.00D-10
 THRNRM  =  1.00D-08  THREQ   =  0.00D+00  THRDE   =  1.00D+00  THRREF  =  1.00D-05  SPARFAC =  1.00D+00  THRDLP  =  1.00D-07
 THRDIA  =  1.00D-10  THRDLS  =  1.00D-07  THRGPS  =  0.00D+00  THRKEX  =  0.00D+00  THRDIS  =  2.00D-01  THRVAR  =  1.00D-10
 THRLOC  =  1.00D-06  THRGAP  =  1.00D-06  THRLOCT = -1.00D+00  THRGAPT = -1.00D+00  THRORB  =  1.00D-06  THRMLTP =  0.00D+00
 THRCPQCI=  1.00D-10  KEXTA   =  0.00D+00  THRCOARS=  0.00D+00  SYMTOL  =  1.00D-06  GRADTOL =  1.00D-06  THROVL  =  1.00D-08
 THRORTH =  1.00D-08  GRID    =  1.00D-06  GRIDMAX =  1.00D-03  DTMAX   =  0.00D+00

 SETTING GEOMTYP        =    XYZ

 Variable memory set to 1000000000 words,  buffer space   230000 words

 SETTING BASIS          =    CC-PVDZ


 Recomputing integrals since basis changed


 Using spherical harmonics

 Library entry C      S cc-pVDZ              selected for orbital group  1
 Library entry C      P cc-pVDZ              selected for orbital group  1
 Library entry C      D cc-pVDZ              selected for orbital group  1
 Library entry O      S cc-pVDZ              selected for orbital group  2
 Library entry O      P cc-pVDZ              selected for orbital group  2
 Library entry O      D cc-pVDZ              selected for orbital group  2
 Library entry H      S cc-pVDZ              selected for orbital group  3
 Library entry H      P cc-pVDZ              selected for orbital group  3

1PROGRAM * SEWARD (Integral evaluation for generally contracted gaussian basis sets)     Author: Roland Lindh, 1990

 Geometry written to block  1 of record 700


 Point group  C1  



 ATOMIC COORDINATES

 NR  ATOM    CHARGE       X              Y              Z

   1  C       6.00    3.357976046    1.344348918   -0.089443368
   2  C       6.00    0.929389944   -0.113370094   -0.371319661
   3  C       6.00    0.851005696   -2.903174955    0.190845199
   4  O       8.00   -1.059724443    1.374405760    0.480848423
   5  O       8.00   -3.472985600    0.174298281   -0.227632072
   6  H       1.00    4.885794851    0.399003971   -1.154380066
   7  H       1.00    3.137928651    3.293142151   -0.806211972
   8  H       1.00    3.959009328    1.463265694    1.923659443
   9  H       1.00   -0.954114290   -3.747099734   -0.417647016
  10  H       1.00    2.421411810   -3.870417907   -0.784887386
  11  H       1.00    1.062468415   -3.246354800    2.261152414
  12  H       1.00   -3.756812458    1.039956495   -1.826547294

 Bond lengths in Bohr (Angstrom)

 1-2  2.846476668  1-6  2.088539572  1-7  2.088054873  1-8  2.104273066  2-3  2.846960586
     ( 1.506290578)     ( 1.105207541)     ( 1.104951050)     ( 1.113533348)     ( 1.506546657)

  2- 4  2.626069968   3- 9  2.083489854   3-10  2.086573356   3-11  2.109184879   4- 5  2.786760123
       ( 1.389656376)       ( 1.102535346)       ( 1.104167065)       ( 1.116132568)       ( 1.474689944)

  5-12  1.840231430
       ( 0.973808532)

 Bond angles

  1-2-3  120.38240730   1-2-4  108.90382840   2-1-6  109.98881274   2-1-7  110.73541197

  2- 1- 8  111.55345410   2- 3- 9  111.29107979   2- 3-10  109.94938199   2- 3-11  110.51803142

  2- 4- 5  109.23562154   3- 2- 4  118.04958559   4- 5-12   98.73568732   6- 1- 7  108.93558384

  6- 1- 8  107.72453152   7- 1- 8  107.80362881   9- 3-10  109.13115150   9- 3-11  107.91637989

 10- 3-11  107.94622967

 NUCLEAR CHARGE:                   41
 NUMBER OF PRIMITIVE AOS:         184
 NUMBER OF SYMMETRY AOS:          179
 NUMBER OF CONTRACTIONS:          105   ( 105A   )
 NUMBER OF CORE ORBITALS:           5   (   5A   )
 NUMBER OF VALENCE ORBITALS:       27   (  27A   )


 NUCLEAR REPULSION ENERGY  183.22202089


 Eigenvalues of metric

         1 0.345E-02 0.435E-02 0.105E-01 0.141E-01 0.182E-01 0.214E-01 0.331E-01 0.346E-01


 Contracted 2-electron integrals neglected if value below      1.0D-16
 AO integral compression algorithm  1   Integral accuracy      1.0D-16

     127.402 MB (compressed) written to integral file ( 93.4%)

     Node minimum: 40.894 MB, node maximum: 45.613 MB


 NUMBER OF SORTED TWO-ELECTRON INTEGRALS:    5164320.     BUFFER LENGTH:  32768
 NUMBER OF SEGMENTS:   1  SEGMENT LENGTH:    5164320      RECORD LENGTH: 524288

 Memory used in sort:       5.72 MW

 SORT1 READ    17075332. AND WROTE     5135910. INTEGRALS IN     15 RECORDS. CPU TIME:     0.21 SEC, REAL TIME:     0.26 SEC
 SORT2 READ    15396631. AND WROTE    15487395. INTEGRALS IN    468 RECORDS. CPU TIME:     0.07 SEC, REAL TIME:     0.11 SEC

 Node minimum:     5160610.  Node maximum:     5164320. integrals

 OPERATOR DM      FOR CENTER  0  COORDINATES:    0.000000    0.000000    0.000000


 **********************************************************************************************************************************
 DATASETS  * FILE   NREC   LENGTH (MB)   RECORD NAMES
              1      18        3.17       500      610      700      900      950      970     1000      129      960     1100   
                                          VAR    BASINP    GEOM    SYMINP    ZMAT    AOBASIS   BASIS     P2S    ABASIS      S 
                                         1400     1410     1200     1210     1080     1600     1650     1700   
                                           T        V       H0       H01     AOSYM     SMH    MOLCAS    OPER   

 PROGRAMS   *        TOTAL       INT
 CPU TIMES  *         0.94      0.87
 REAL TIME  *         1.38 SEC
 DISK USED  *       307.01 MB      
 GA USED    *         0.00 MB       (max)       0.00 MB       (current)
 **********************************************************************************************************************************

1PROGRAM * RHF-SCF (OPEN SHELL)       Authors: W. Meyer, H.-J. Werner


 NUMBER OF ELECTRONS:      21+   20-    SPACE SYMMETRY=1    SPIN SYMMETRY: Doublet 
 CONVERGENCE THRESHOLDS:    1.00E-10 (Density)    1.00E-11 (Energy)
 MAX. NUMBER OF ITERATIONS:      200
 INTERPOLATION TYPE:            DIIS
 INTERPOLATION STEPS:              2 (START)      1 (STEP)
 LEVEL SHIFTS:                 -0.30 (CLOSED)  0.00 (OPEN) 



 Orbital guess generated from atomic densities. Full valence occupancy:   32

 Molecular orbital dump at record        2100.2

 ITERATION    DDIFF          GRAD             ENERGY        2-EL.EN.            DIPOLE MOMENTS         DIIS
    1      0.000D+00      0.000D+00      -267.17825151    555.814598    0.57067    0.04869   -0.74738    0
    2      0.000D+00      0.617D-02      -267.24891643    555.737456    0.41459   -0.13167   -0.59871    1
    3      0.927D-02      0.214D-02      -267.26109409    555.655000    0.39427   -0.05962   -0.62632    2
    4      0.336D-02      0.912D-03      -267.26470359    555.807440    0.37964   -0.09975   -0.64301    3
    5      0.186D-02      0.363D-03      -267.26527310    555.778879    0.38217   -0.09326   -0.63612    4
    6      0.793D-03      0.110D-03      -267.26534959    555.765125    0.38043   -0.09306   -0.63889    5
    7      0.277D-03      0.511D-04      -267.26536976    555.762128    0.37971   -0.09280   -0.63840    6
    8      0.144D-03      0.273D-04      -267.26537583    555.760181    0.37998   -0.09291   -0.63862    7
    9      0.925D-04      0.115D-04      -267.26537675    555.760499    0.38016   -0.09287   -0.63837    8
   10      0.366D-04      0.501D-05      -267.26537691    555.761110    0.38042   -0.09288   -0.63844    9
   11      0.147D-04      0.197D-05      -267.26537693    555.760951    0.38047   -0.09288   -0.63844    9
   12      0.651D-05      0.671D-06      -267.26537694    555.761085    0.38049   -0.09288   -0.63844    9
   13      0.227D-05      0.226D-06      -267.26537694    555.761001    0.38049   -0.09288   -0.63844    9
   14      0.632D-06      0.758D-07      -267.26537694    555.761009    0.38049   -0.09288   -0.63844    9
   15      0.193D-06      0.301D-07      -267.26537694    555.761005    0.38049   -0.09288   -0.63844    9
   16      0.826D-07      0.145D-07      -267.26537694    555.761007    0.38049   -0.09288   -0.63844    9
   17      0.375D-07      0.752D-08      -267.26537694    555.761007    0.38050   -0.09288   -0.63844    9
   18      0.223D-07      0.342D-08      -267.26537694    555.761007    0.38050   -0.09288   -0.63844    9
   19      0.114D-07      0.133D-08      -267.26537694    555.761007    0.38049   -0.09288   -0.63844    9
   20      0.444D-08      0.567D-09      -267.26537694    555.761007    0.38049   -0.09288   -0.63844    9
   21      0.166D-08      0.287D-09      -267.26537694    555.761007    0.38049   -0.09288   -0.63844    9
   22      0.755D-09      0.162D-09      -267.26537694    555.761007    0.38049   -0.09288   -0.63844    9
   23      0.447D-09      0.797D-10      -267.26537694    555.761007    0.38049   -0.09288   -0.63844    9
   24      0.264D-09      0.317D-10      -267.26537694    555.761007    0.38049   -0.09288   -0.63844    9
   25      0.934D-10      0.129D-10      -267.26537694    555.761007    0.38049   -0.09288   -0.63844    0

 Final alpha occupancy:  21
 Final beta  occupancy:  20

 !RHF STATE 1.1 Energy               -267.265376937008
 Nuclear energy                       183.22202089
 One-electron energy                 -728.36790137
 Two-electron energy                  277.88050354
 Virial quotient                       -1.00155786
 !RHF STATE 1.1 Dipole moment           0.38049491    -0.09287817    -0.63843515
 Dipole moment /Debye                   0.96705826    -0.23605729    -1.62263402

 Orbital energies:

         1.1          2.1          3.1          4.1          5.1          6.1          7.1          8.1          9.1         10.1
    -20.630516   -20.628773   -11.279279   -11.237889   -11.232343    -1.470227    -1.240830    -1.023224    -0.945303    -0.768486

        11.1         12.1         13.1         14.1         15.1         16.1         17.1         18.1         19.1         20.1
     -0.704706    -0.643001    -0.626696    -0.588832    -0.544946    -0.543607    -0.538839    -0.516940    -0.493033    -0.469873

        21.1         22.1         23.1
     -0.352211     0.181328     0.183550


 **********************************************************************************************************************************
 DATASETS  * FILE   NREC   LENGTH (MB)   RECORD NAMES
              1      18        3.17       500      610      700      900      950      970     1000      129      960     1100   
                                          VAR    BASINP    GEOM    SYMINP    ZMAT    AOBASIS   BASIS     P2S    ABASIS      S 
                                         1400     1410     1200     1210     1080     1600     1650     1700   
                                           T        V       H0       H01     AOSYM     SMH    MOLCAS    OPER   

              2       3        0.77       700     1000     2100   
                                         GEOM     BASIS     RHF  

 PROGRAMS   *        TOTAL       RHF       INT
 CPU TIMES  *         2.04      1.09      0.87
 REAL TIME  *         2.63 SEC
 DISK USED  *       323.58 MB      
 SF USED    *         0.04 MB      
 GA USED    *         0.00 MB       (max)       0.00 MB       (current)
 **********************************************************************************************************************************


1PROGRAM * CCSD (Unrestricted open-shell coupled cluster)     Authors: C. Hampel, H.-J. Werner, 1991, M. Deegan, P.J. Knowles, 1992


 Convergence thresholds:  THRVAR = 1.00D-08  THRDEN = 1.00D-10

 CCSD(T)     terms to be evaluated (factor= 1.000)


 Number of core orbitals:           5 (   5 )
 Number of closed-shell orbitals:  15 (  15 )
 Number of active  orbitals:        1 (   1 )
 Number of external orbitals:      84 (  84 )

 Memory could be reduced to 24.91 Mwords without degradation in triples

 Number of N-1 electron functions:              31
 Number of N-2 electron functions:             465
 Number of singly external CSFs:              2635
 Number of doubly external CSFs:           2537250
 Total number of CSFs:                     2539885

 Molecular orbitals read from record     2100.2  Type=RHF/CANONICAL (state 1.1)

 Integral transformation finished. Total CPU:   0.91 sec, npass=  1  Memory used:  12.63 MW

 Starting RMP2 calculation

 ITER.      SQ.NORM     CORR.ENERGY   TOTAL ENERGY   ENERGY CHANGE        DEN1      VAR(S)    VAR(P)  DIIS     TIME
   1      1.24304071    -0.78638105  -268.05175799    -0.78638105    -0.00305004  0.20D-04  0.11D-02  1  1     1.24
   2      1.24568263    -0.78967033  -268.05504726    -0.00328928    -0.00000475  0.54D-06  0.19D-05  2  2     1.55
   3      1.24574825    -0.78971242  -268.05508936    -0.00004210    -0.00000003  0.16D-07  0.68D-08  3  3     1.88
   4      1.24574920    -0.78971243  -268.05508936    -0.00000000    -0.00000000  0.27D-09  0.38D-10  4  4     2.24
   5      1.24574929    -0.78971246  -268.05508940    -0.00000003    -0.00000000  0.25D-11  0.65D-12  5  5     2.63
   6      1.24574930    -0.78971247  -268.05508940    -0.00000001    -0.00000000  0.28D-13  0.87D-14  6  6     3.04
   7      1.24574930    -0.78971247  -268.05508940     0.00000000    -0.00000000  0.47D-15  0.12D-15  6  1     3.45
   8      1.24574930    -0.78971247  -268.05508940     0.00000000    -0.00000000  0.60D-17  0.13D-17  6  2     3.86

 Norm of t1 vector:      0.03894875      S-energy:    -0.00227281      T1 diagnostic:  0.00055067
 Norm of t2 vector:      0.49419864      P-energy:    -0.78743965
                                         Alpha-Beta:  -0.59342059
                                         Alpha-Alpha: -0.10094097
                                         Beta-Beta:   -0.09307810

 Spin contamination <S**2-Sz**2-Sz>     0.00104117
  Reference energy                   -267.265376937007
  RHF-RMP2 correlation energy          -0.789712465324
 !RHF-RMP2 energy                    -268.055089402331

 Starting UCCSD calculation

 ITER.      SQ.NORM     CORR.ENERGY   TOTAL ENERGY   ENERGY CHANGE        DEN1      VAR(S)    VAR(P)  DIIS     TIME
   1      1.26282000    -0.80905524  -268.07443217    -0.80905524    -0.02515777  0.38D-02  0.59D-02  1  1     9.27
   2      1.29159978    -0.83646653  -268.10184347    -0.02741129    -0.00201144  0.22D-03  0.66D-03  2  2    14.66
   3      1.30154350    -0.84096543  -268.10634237    -0.00449891    -0.00032466  0.19D-03  0.56D-04  3  3    20.09
   4      1.30645744    -0.84244287  -268.10781980    -0.00147743    -0.00007206  0.43D-04  0.14D-04  4  4    25.54
   5      1.30918663    -0.84283096  -268.10820790    -0.00038810    -0.00002365  0.19D-04  0.32D-05  5  5    31.58
   6      1.31112429    -0.84303533  -268.10841227    -0.00020437    -0.00000645  0.42D-05  0.12D-05  6  6    36.99
   7      1.31207230    -0.84309404  -268.10847098    -0.00005872    -0.00000208  0.14D-05  0.37D-06  6  2    42.42
   8      1.31251321    -0.84313668  -268.10851362    -0.00004263    -0.00000065  0.45D-06  0.11D-06  6  1    47.92
   9      1.31269821    -0.84314126  -268.10851820    -0.00000458    -0.00000022  0.15D-06  0.35D-07  6  4    53.38
  10      1.31276145    -0.84314419  -268.10852113    -0.00000293    -0.00000005  0.35D-07  0.95D-08  6  3    58.82
  11      1.31279094    -0.84314293  -268.10851987     0.00000126    -0.00000002  0.13D-07  0.28D-08  6  5    64.33
  12      1.31280130    -0.84314267  -268.10851961     0.00000026    -0.00000000  0.26D-08  0.95D-09  6  6    70.45
  13      1.31280015    -0.84314175  -268.10851869     0.00000092    -0.00000000  0.96D-09  0.28D-09  6  2    78.30
  14      1.31279494    -0.84314091  -268.10851785     0.00000084    -0.00000000  0.21D-09  0.67D-10  6  1    86.10
  15      1.31279087    -0.84314032  -268.10851726     0.00000059    -0.00000000  0.78D-10  0.19D-10  6  4    93.82
  16      1.31278769    -0.84313994  -268.10851688     0.00000038    -0.00000000  0.28D-10  0.63D-11  6  3   101.32
  17      1.31278549    -0.84313970  -268.10851664     0.00000024    -0.00000000  0.10D-10  0.24D-11  6  5   109.16
  18      1.31278459    -0.84313964  -268.10851658     0.00000006    -0.00000000  0.41D-11  0.87D-12  6  6   116.93
  19      1.31278398    -0.84313961  -268.10851654     0.00000003    -0.00000000  0.16D-11  0.37D-12  6  2   124.69
  20      1.31278366    -0.84313960  -268.10851653     0.00000001    -0.00000000  0.60D-12  0.13D-12  6  1   132.46
  21      1.31278350    -0.84313959  -268.10851652     0.00000001    -0.00000000  0.28D-12  0.58D-13  6  4   140.30
  22      1.31278338    -0.84313958  -268.10851651     0.00000001    -0.00000000  0.74D-13  0.21D-13  6  3   148.25
  23      1.31278332    -0.84313957  -268.10851651     0.00000000    -0.00000000  0.21D-13  0.63D-14  6  5   156.22
  24      1.31278331    -0.84313957  -268.10851651    -0.00000000    -0.00000000  0.67D-14  0.23D-14  6  6   164.06
  25      1.31278332    -0.84313958  -268.10851651    -0.00000000    -0.00000000  0.21D-14  0.52D-15  6  2   171.95
  26      1.31278332    -0.84313958  -268.10851651    -0.00000000    -0.00000000  0.77D-15  0.15D-15  6  1   179.84
  27      1.31278333    -0.84313958  -268.10851651    -0.00000000    -0.00000000  0.20D-15  0.62D-16  6  3   187.75
  28      1.31278334    -0.84313958  -268.10851651    -0.00000000    -0.00000000  0.30D-16  0.11D-16  6  4   195.56
  29      1.31278334    -0.84313958  -268.10851651    -0.00000000    -0.00000000  0.70D-17  0.29D-17  6  5   203.43
  30      1.31278334    -0.84313958  -268.10851651    -0.00000000    -0.00000000  0.15D-17  0.54D-18  6  6   211.20
  31      1.31278334    -0.84313958  -268.10851652    -0.00000000    -0.00000000  0.35D-18  0.10D-18  6  2   219.00

 Norm of t1 vector:      0.13870917      S-energy:    -0.00282272      T1 diagnostic:  0.01616711
                                                                       D1 diagnostic:  0.06280595
 Norm of t2 vector:      0.54179618      P-energy:    -0.84031686
                                         Alpha-Beta:  -0.66487380
                                         Alpha-Alpha: -0.09147355
                                         Beta-Beta:   -0.08396951

 Spin contamination <S**2-Sz**2-Sz>     0.00217062

 Memory could be reduced to 28.85 Mwords without degradation in triples
 

 RESULTS
 =======

  Reference energy                   -267.265376937007
  UCCSD singles energy                 -0.002822720546
  UCCSD pair energy                    -0.840316857460
  UCCSD correlation energy             -0.843139578006
  Triples (T) contribution             -0.024977458110
  Total correlation energy             -0.868117036116
 
  RHF-UCCSD energy                   -268.108516515013
  RHF-UCCSD[T] energy                -268.134829686891
  RHF-UCCSD-T energy                 -268.133072454327
 !RHF-UCCSD(T) energy                -268.133493973123

 Program statistics:

 Available memory in ccsd:               999997692
 Min. memory needed in ccsd:               7337057
 Max. memory used in ccsd:                10523002
 Max. memory used in cckext:              10867977 (31 integral passes)
 Max. memory used in cckint:              12633073 ( 1 integral passes)



 **********************************************************************************************************************************
 DATASETS  * FILE   NREC   LENGTH (MB)   RECORD NAMES
              1      18        3.17       500      610      700      900      950      970     1000      129      960     1100   
                                          VAR    BASINP    GEOM    SYMINP    ZMAT    AOBASIS   BASIS     P2S    ABASIS      S 
                                         1400     1410     1200     1210     1080     1600     1650     1700   
                                           T        V       H0       H01     AOSYM     SMH    MOLCAS    OPER   

              2       3        0.77       700     1000     2100   
                                         GEOM     BASIS     RHF  

 PROGRAMS   *        TOTAL  UCCSD(T)       RHF       INT
 CPU TIMES  *       279.80    277.76      1.09      0.87
 REAL TIME  *       293.76 SEC
 DISK USED  *         1.29 GB      
 SF USED    *       553.73 MB      
 GA USED    *         0.00 MB       (max)       0.00 MB       (current)
 **********************************************************************************************************************************

        UCCSD(T)        RHF-SCF 
   -268.13349397   -267.26537694
 **********************************************************************************************************************************
 Variable memory released
