
 Primary working directories    : /tmp/320938.88.gen4.q
 Secondary working directories  : /tmp/320938.88.gen4.q
 Wavefunction directory         : /home/vulcan/mel64643/wfu/
 Main file repository           : /tmp/320938.88.gen4.q/

 ARCHNAME  : Linux/x86_64
 FC        : /opt/intel/compilers_and_libraries_2016.1.150/linux/bin/intel64/ifort
 FCVERSION : 16.0.1
 BLASLIB   : -mkl
 id        : ccgc

 Nodes     nprocs
 n021         3
 Number of processes for MPI-2 version of Molpro:   nprocs(total)=    4   nprocs(compute)=    3   nprocs(helper)=    1
 ga_uses_ma=false, calling ma_init with nominal heap.
 GA-space will be limited to   8.0 MW (determined by -G option)

 Using customized tuning parameters: mindgm=10; mindgv=16; mindgc=4; mindgr=1; noblas=0; mincuda=1000; minvec=7
 default implementation of scratch files=sf  

 ***,Frequencies for min3
 memory,1000,m
 gthresh,energy=1.0d-10,orbital=1.0d-10,oneint=1.0d-16,twoint=1.0d-16,optgrad=1.0d-6,compress=1.0d-13
 geomtyp=xyz
 
  geometry = {
  12
  arbitrary comment
     C    1.776964391707    0.711398808326   -0.047331391796
     C    0.491811976407   -0.059992870174   -0.196493901896
     C    0.450332819107   -1.536294019674    0.101417522804
     O   -0.560767745493    0.727234937526    0.254453964104
     O   -1.837840335593    0.092269037726   -0.120531795196
     H    2.585373063107    0.211465914126   -0.611440883996
     H    1.660426393907    1.742887987326   -0.426532369096
     H    2.095123485707    0.774048097326    1.017650404504
     H   -0.504871383593   -1.982776187874   -0.220083970196
     H    1.281893837607   -2.047204737974   -0.417158180796
     H    0.562960381534   -1.720216053452    1.195741077407
     H   -1.989222169820    0.551882985204   -0.967993152098
  }
 
 basis=cc-pvdz
 {rhf;maxit,200}
 {uccsd(t);maxit,200}

 Variables initialized (661), CPU time= 0.01 sec
 Commands  initialized (458), CPU time= 0.01 sec, 486 directives.
 Default parameters read. Elapsed time= 0.07 sec

 Checking input...
 Passed
1


                                         ***  PROGRAM SYSTEM MOLPRO  ***
                         Copyright, University College Cardiff Consultants Limited, 2008

                                    Version 2010.1 linked May 16 2016 07:17:05


 **********************************************************************************************************************************
 LABEL *   Frequencies for min3                                                          
 Linux-4.4.3/n021(x86_64) 64 bit mpp version                                             DATE: 07-Mar-20          TIME: 01:27:50  
 **********************************************************************************************************************************

 SHA1:             9e8077add272b0f3cad6f7df79ec5211205f459d
 **********************************************************************************************************************************

 THRESHOLDS:

 ZERO    =  1.00D-12  ONEINT  =  1.00D-16  TWOINT  =  1.00D-16  PREFAC  =  1.00D-14  LOCALI  =  1.00D-09  EORDER  =  1.00D-04
 ENERGY  =  1.00D-10  ETEST   =  0.00D+00  EDENS   =  0.00D+00  THRDEDEF=  1.00D-06  GRADIENT=  1.00D-02  STEP    =  1.00D-03
 ORBITAL =  1.00D-10  CIVEC   =  1.00D-05  COEFF   =  1.00D-04  PRINTCI =  5.00D-02  PUNCHCI =  9.90D+01  OPTGRAD =  1.00D-06
 OPTENERG=  1.00D-06  OPTSTEP =  3.00D-04  THRGRAD =  1.00D-10  COMPRESS=  1.00D-13  VARMIN  =  1.00D-07  VARMAX  =  1.00D-03
 THRDOUB =  0.00D+00  THRDIV  =  1.00D-05  THRRED  =  1.00D-07  THRPSP  =  1.00D+00  THRDC   =  1.00D-10  THRCS   =  1.00D-10
 THRNRM  =  1.00D-08  THREQ   =  0.00D+00  THRDE   =  1.00D+00  THRREF  =  1.00D-05  SPARFAC =  1.00D+00  THRDLP  =  1.00D-07
 THRDIA  =  1.00D-10  THRDLS  =  1.00D-07  THRGPS  =  0.00D+00  THRKEX  =  0.00D+00  THRDIS  =  2.00D-01  THRVAR  =  1.00D-10
 THRLOC  =  1.00D-06  THRGAP  =  1.00D-06  THRLOCT = -1.00D+00  THRGAPT = -1.00D+00  THRORB  =  1.00D-06  THRMLTP =  0.00D+00
 THRCPQCI=  1.00D-10  KEXTA   =  0.00D+00  THRCOARS=  0.00D+00  SYMTOL  =  1.00D-06  GRADTOL =  1.00D-06  THROVL  =  1.00D-08
 THRORTH =  1.00D-08  GRID    =  1.00D-06  GRIDMAX =  1.00D-03  DTMAX   =  0.00D+00

 SETTING GEOMTYP        =    XYZ

 Variable memory set to 1000000000 words,  buffer space   230000 words

 SETTING BASIS          =    CC-PVDZ


 Recomputing integrals since basis changed


 Using spherical harmonics

 Library entry C      S cc-pVDZ              selected for orbital group  1
 Library entry C      P cc-pVDZ              selected for orbital group  1
 Library entry C      D cc-pVDZ              selected for orbital group  1
 Library entry O      S cc-pVDZ              selected for orbital group  2
 Library entry O      P cc-pVDZ              selected for orbital group  2
 Library entry O      D cc-pVDZ              selected for orbital group  2
 Library entry H      S cc-pVDZ              selected for orbital group  3
 Library entry H      P cc-pVDZ              selected for orbital group  3

1PROGRAM * SEWARD (Integral evaluation for generally contracted gaussian basis sets)     Author: Roland Lindh, 1990

 Geometry written to block  1 of record 700


 Point group  C1  



 ATOMIC COORDINATES

 NR  ATOM    CHARGE       X              Y              Z

   1  C       6.00    3.357976046    1.344348918   -0.089443368
   2  C       6.00    0.929389944   -0.113370094   -0.371319661
   3  C       6.00    0.851005696   -2.903174955    0.191651343
   4  O       8.00   -1.059697462    1.374274865    0.480848305
   5  O       8.00   -3.473014908    0.174363212   -0.227772083
   6  H       1.00    4.885647037    0.399612664   -1.155455816
   7  H       1.00    3.137751146    3.293580974   -0.806029364
   8  H       1.00    3.959209599    1.462738916    1.923080562
   9  H       1.00   -0.954068647   -3.746903975   -0.415898430
  10  H       1.00    2.422428283   -3.868656290   -0.788314715
  11  H       1.00    1.063840944   -3.250737228    2.259623160
  12  H       1.00   -3.759085116    1.042907699   -1.829241955

 Bond lengths in Bohr (Angstrom)

 1-2  2.846476668  1-6  2.088704811  1-7  2.088420481  1-8  2.103746788  2-3  2.847119878
     ( 1.506290578)     ( 1.105294982)     ( 1.105144521)     ( 1.113254854)     ( 1.506630951)

  2- 4  2.625975338   3- 9  2.083095958   3-10  2.088505837   3-11  2.107748992   4- 5  2.786760112
       ( 1.389606300)       ( 1.102326905)       ( 1.105189690)       ( 1.115372729)       ( 1.474689938)

  5-12  1.844156023
       ( 0.975885337)

 Bond angles

  1-2-3  120.37866573   1-2-4  108.90555081   2-1-6  109.98947225   2-1-7  110.73429490

  2- 1- 8  111.55454090   2- 3- 9  111.28876801   2- 3-10  109.84532206   2- 3-11  110.65865525

  2- 4- 5  109.23946113   3- 2- 4  118.03986083   4- 5-12   98.76398925   6- 1- 7  108.91518355

  6- 1- 8  107.73808609   7- 1- 8  107.80970783   9- 3-10  109.14141684   9- 3-11  107.87034837

 10- 3-11  107.94822346

 NUCLEAR CHARGE:                   41
 NUMBER OF PRIMITIVE AOS:         184
 NUMBER OF SYMMETRY AOS:          179
 NUMBER OF CONTRACTIONS:          105   ( 105A   )
 NUMBER OF CORE ORBITALS:           5   (   5A   )
 NUMBER OF VALENCE ORBITALS:       27   (  27A   )


 NUCLEAR REPULSION ENERGY  183.20637221


 Eigenvalues of metric

         1 0.345E-02 0.435E-02 0.105E-01 0.141E-01 0.182E-01 0.214E-01 0.331E-01 0.346E-01


 Contracted 2-electron integrals neglected if value below      1.0D-16
 AO integral compression algorithm  1   Integral accuracy      1.0D-16

     127.664 MB (compressed) written to integral file ( 93.2%)

     Node minimum: 41.157 MB, node maximum: 44.302 MB


 NUMBER OF SORTED TWO-ELECTRON INTEGRALS:    5164320.     BUFFER LENGTH:  32768
 NUMBER OF SEGMENTS:   1  SEGMENT LENGTH:    5164320      RECORD LENGTH: 524288

 Memory used in sort:       5.72 MW

 SORT1 READ    17075251. AND WROTE     5135865. INTEGRALS IN     15 RECORDS. CPU TIME:     0.24 SEC, REAL TIME:     0.28 SEC
 SORT2 READ    15396549. AND WROTE    15487395. INTEGRALS IN    471 RECORDS. CPU TIME:     0.07 SEC, REAL TIME:     0.12 SEC

 Node minimum:     5160610.  Node maximum:     5164320. integrals

 OPERATOR DM      FOR CENTER  0  COORDINATES:    0.000000    0.000000    0.000000


 **********************************************************************************************************************************
 DATASETS  * FILE   NREC   LENGTH (MB)   RECORD NAMES
              1      18        3.17       500      610      700      900      950      970     1000      129      960     1100   
                                          VAR    BASINP    GEOM    SYMINP    ZMAT    AOBASIS   BASIS     P2S    ABASIS      S 
                                         1400     1410     1200     1210     1080     1600     1650     1700   
                                           T        V       H0       H01     AOSYM     SMH    MOLCAS    OPER   

 PROGRAMS   *        TOTAL       INT
 CPU TIMES  *         1.31      1.22
 REAL TIME  *         1.59 SEC
 DISK USED  *       305.69 MB      
 GA USED    *         0.00 MB       (max)       0.00 MB       (current)
 **********************************************************************************************************************************

1PROGRAM * RHF-SCF (OPEN SHELL)       Authors: W. Meyer, H.-J. Werner


 NUMBER OF ELECTRONS:      21+   20-    SPACE SYMMETRY=1    SPIN SYMMETRY: Doublet 
 CONVERGENCE THRESHOLDS:    1.00E-10 (Density)    1.00E-11 (Energy)
 MAX. NUMBER OF ITERATIONS:      200
 INTERPOLATION TYPE:            DIIS
 INTERPOLATION STEPS:              2 (START)      1 (STEP)
 LEVEL SHIFTS:                 -0.30 (CLOSED)  0.00 (OPEN) 



 Orbital guess generated from atomic densities. Full valence occupancy:   32

 Molecular orbital dump at record        2100.2

 ITERATION    DDIFF          GRAD             ENERGY        2-EL.EN.            DIPOLE MOMENTS         DIIS
    1      0.000D+00      0.000D+00      -267.17817996    555.794405    0.56859    0.05051   -0.75029    0
    2      0.000D+00      0.617D-02      -267.24884055    555.712775    0.41295   -0.13006   -0.59970    1
    3      0.927D-02      0.214D-02      -267.26101261    555.631343    0.39276   -0.05828   -0.62705    2
    4      0.336D-02      0.912D-03      -267.26461664    555.783161    0.37829   -0.09848   -0.64337    3
    5      0.186D-02      0.363D-03      -267.26518496    555.754471    0.38091   -0.09200   -0.63633    4
    6      0.792D-03      0.110D-03      -267.26526121    555.740702    0.37921   -0.09181   -0.63906    5
    7      0.277D-03      0.510D-04      -267.26528126    555.737694    0.37852   -0.09155   -0.63854    6
    8      0.143D-03      0.272D-04      -267.26528730    555.735742    0.37881   -0.09166   -0.63875    7
    9      0.922D-04      0.115D-04      -267.26528821    555.736060    0.37900   -0.09162   -0.63850    8
   10      0.365D-04      0.501D-05      -267.26528837    555.736670    0.37926   -0.09163   -0.63857    9
   11      0.146D-04      0.196D-05      -267.26528840    555.736513    0.37931   -0.09163   -0.63857    9
   12      0.650D-05      0.670D-06      -267.26528840    555.736647    0.37933   -0.09163   -0.63857    9
   13      0.227D-05      0.226D-06      -267.26528840    555.736563    0.37933   -0.09163   -0.63857    9
   14      0.632D-06      0.759D-07      -267.26528840    555.736572    0.37933   -0.09163   -0.63857    9
   15      0.193D-06      0.301D-07      -267.26528840    555.736568    0.37933   -0.09163   -0.63857    9
   16      0.827D-07      0.146D-07      -267.26528840    555.736569    0.37933   -0.09163   -0.63857    9
   17      0.376D-07      0.755D-08      -267.26528840    555.736569    0.37933   -0.09163   -0.63857    9
   18      0.224D-07      0.343D-08      -267.26528840    555.736569    0.37933   -0.09163   -0.63857    9
   19      0.115D-07      0.133D-08      -267.26528840    555.736569    0.37933   -0.09163   -0.63857    9
   20      0.444D-08      0.567D-09      -267.26528840    555.736569    0.37933   -0.09163   -0.63857    9
   21      0.166D-08      0.287D-09      -267.26528840    555.736569    0.37933   -0.09163   -0.63857    9
   22      0.755D-09      0.162D-09      -267.26528840    555.736569    0.37933   -0.09163   -0.63857    9
   23      0.447D-09      0.798D-10      -267.26528840    555.736569    0.37933   -0.09163   -0.63857    9
   24      0.264D-09      0.317D-10      -267.26528840    555.736569    0.37933   -0.09163   -0.63857    9
   25      0.934D-10      0.129D-10      -267.26528840    555.736569    0.37933   -0.09163   -0.63857    0

 Final alpha occupancy:  21
 Final beta  occupancy:  20

 !RHF STATE 1.1 Energy               -267.265288400360
 Nuclear energy                       183.20637221
 One-electron energy                 -728.33994528
 Two-electron energy                  277.86828468
 Virial quotient                       -1.00157215
 !RHF STATE 1.1 Dipole moment           0.37933205    -0.09163161    -0.63856807
 Dipole moment /Debye                   0.96410275    -0.23288906    -1.62297183

 Orbital energies:

         1.1          2.1          3.1          4.1          5.1          6.1          7.1          8.1          9.1         10.1
    -20.630451   -20.628924   -11.279279   -11.237875   -11.232307    -1.469977    -1.240451    -1.023152    -0.945263    -0.768367

        11.1         12.1         13.1         14.1         15.1         16.1         17.1         18.1         19.1         20.1
     -0.704328    -0.642992    -0.626672    -0.588675    -0.544988    -0.543385    -0.538886    -0.516887    -0.492934    -0.469744

        21.1         22.1         23.1
     -0.352305     0.181161     0.183452


 **********************************************************************************************************************************
 DATASETS  * FILE   NREC   LENGTH (MB)   RECORD NAMES
              1      18        3.17       500      610      700      900      950      970     1000      129      960     1100   
                                          VAR    BASINP    GEOM    SYMINP    ZMAT    AOBASIS   BASIS     P2S    ABASIS      S 
                                         1400     1410     1200     1210     1080     1600     1650     1700   
                                           T        V       H0       H01     AOSYM     SMH    MOLCAS    OPER   

              2       3        0.77       700     1000     2100   
                                         GEOM     BASIS     RHF  

 PROGRAMS   *        TOTAL       RHF       INT
 CPU TIMES  *         2.62      1.31      1.22
 REAL TIME  *         3.04 SEC
 DISK USED  *       322.26 MB      
 SF USED    *         0.04 MB      
 GA USED    *         0.00 MB       (max)       0.00 MB       (current)
 **********************************************************************************************************************************


1PROGRAM * CCSD (Unrestricted open-shell coupled cluster)     Authors: C. Hampel, H.-J. Werner, 1991, M. Deegan, P.J. Knowles, 1992


 Convergence thresholds:  THRVAR = 1.00D-08  THRDEN = 1.00D-10

 CCSD(T)     terms to be evaluated (factor= 1.000)


 Number of core orbitals:           5 (   5 )
 Number of closed-shell orbitals:  15 (  15 )
 Number of active  orbitals:        1 (   1 )
 Number of external orbitals:      84 (  84 )

 Memory could be reduced to 24.91 Mwords without degradation in triples

 Number of N-1 electron functions:              31
 Number of N-2 electron functions:             465
 Number of singly external CSFs:              2635
 Number of doubly external CSFs:           2537250
 Total number of CSFs:                     2539885

 Molecular orbitals read from record     2100.2  Type=RHF/CANONICAL (state 1.1)

 Integral transformation finished. Total CPU:   1.13 sec, npass=  1  Memory used:  12.63 MW

 Starting RMP2 calculation

 ITER.      SQ.NORM     CORR.ENERGY   TOTAL ENERGY   ENERGY CHANGE        DEN1      VAR(S)    VAR(P)  DIIS     TIME
   1      1.24310526    -0.78646411  -268.05175251    -0.78646411    -0.00305131  0.20D-04  0.11D-02  1  1     1.50
   2      1.24574855    -0.78975479  -268.05504319    -0.00329067    -0.00000475  0.54D-06  0.19D-05  2  2     1.84
   3      1.24581417    -0.78979689  -268.05508529    -0.00004210    -0.00000003  0.16D-07  0.68D-08  3  3     2.21
   4      1.24581512    -0.78979689  -268.05508529    -0.00000000    -0.00000000  0.27D-09  0.38D-10  4  4     2.60
   5      1.24581521    -0.78979692  -268.05508532    -0.00000003    -0.00000000  0.26D-11  0.66D-12  5  5     3.03
   6      1.24581522    -0.78979693  -268.05508533    -0.00000001    -0.00000000  0.28D-13  0.87D-14  6  6     3.49
   7      1.24581522    -0.78979693  -268.05508533     0.00000000    -0.00000000  0.47D-15  0.12D-15  6  1     3.94
   8      1.24581522    -0.78979693  -268.05508533     0.00000000    -0.00000000  0.60D-17  0.13D-17  6  2     4.40

 Norm of t1 vector:      0.03893732      S-energy:    -0.00227174      T1 diagnostic:  0.00055064
 Norm of t2 vector:      0.49426623      P-energy:    -0.78752519
                                         Alpha-Beta:  -0.59348957
                                         Alpha-Alpha: -0.10094895
                                         Beta-Beta:   -0.09308667

 Spin contamination <S**2-Sz**2-Sz>     0.00104044
  Reference energy                   -267.265288400358
  RHF-RMP2 correlation energy          -0.789796928080
 !RHF-RMP2 energy                    -268.055085328438

 Starting UCCSD calculation

 ITER.      SQ.NORM     CORR.ENERGY   TOTAL ENERGY   ENERGY CHANGE        DEN1      VAR(S)    VAR(P)  DIIS     TIME
   1      1.26287884    -0.80912112  -268.07440952    -0.80912112    -0.02516717  0.38D-02  0.59D-02  1  1    11.14
   2      1.29167394    -0.83654219  -268.10183059    -0.02742107    -0.00201321  0.22D-03  0.66D-03  2  2    17.83
   3      1.30162731    -0.84104499  -268.10633339    -0.00450280    -0.00032498  0.19D-03  0.56D-04  3  3    24.59
   4      1.30654678    -0.84252381  -268.10781221    -0.00147882    -0.00007216  0.43D-04  0.14D-04  4  4    31.39
   5      1.30927930    -0.84291229  -268.10820069    -0.00038848    -0.00002370  0.19D-04  0.32D-05  5  5    38.15
   6      1.31122033    -0.84311694  -268.10840534    -0.00020465    -0.00000646  0.42D-05  0.12D-05  6  6    46.34
   7      1.31217072    -0.84317579  -268.10846419    -0.00005885    -0.00000208  0.14D-05  0.37D-06  6  2    54.55
   8      1.31261278    -0.84321851  -268.10850691    -0.00004272    -0.00000065  0.45D-06  0.11D-06  6  1    62.77
   9      1.31279820    -0.84322311  -268.10851151    -0.00000459    -0.00000022  0.15D-06  0.35D-07  6  4    70.98
  10      1.31286147    -0.84322605  -268.10851445    -0.00000294    -0.00000005  0.35D-07  0.95D-08  6  3    79.17
  11      1.31289094    -0.84322478  -268.10851318     0.00000127    -0.00000002  0.13D-07  0.28D-08  6  5    87.35
  12      1.31290131    -0.84322451  -268.10851291     0.00000027    -0.00000000  0.26D-08  0.95D-09  6  6    95.55
  13      1.31290016    -0.84322359  -268.10851199     0.00000092    -0.00000000  0.96D-09  0.29D-09  6  2   103.75
  14      1.31289495    -0.84322275  -268.10851115     0.00000085    -0.00000000  0.21D-09  0.68D-10  6  1   111.98
  15      1.31289087    -0.84322216  -268.10851056     0.00000059    -0.00000000  0.78D-10  0.19D-10  6  4   120.19
  16      1.31288768    -0.84322178  -268.10851018     0.00000038    -0.00000000  0.28D-10  0.63D-11  6  3   128.39
  17      1.31288548    -0.84322154  -268.10850994     0.00000024    -0.00000000  0.10D-10  0.24D-11  6  5   136.60
  18      1.31288457    -0.84322148  -268.10850988     0.00000006    -0.00000000  0.41D-11  0.87D-12  6  6   144.51
  19      1.31288396    -0.84322144  -268.10850984     0.00000003    -0.00000000  0.16D-11  0.37D-12  6  2   151.33
  20      1.31288364    -0.84322143  -268.10850983     0.00000001    -0.00000000  0.60D-12  0.13D-12  6  1   158.15
  21      1.31288348    -0.84322142  -268.10850982     0.00000001    -0.00000000  0.28D-12  0.58D-13  6  4   165.04
  22      1.31288336    -0.84322141  -268.10850981     0.00000001    -0.00000000  0.74D-13  0.21D-13  6  3   171.88
  23      1.31288330    -0.84322141  -268.10850981     0.00000000    -0.00000000  0.22D-13  0.63D-14  6  5   178.71
  24      1.31288329    -0.84322141  -268.10850981    -0.00000000    -0.00000000  0.68D-14  0.23D-14  6  6   185.52
  25      1.31288330    -0.84322141  -268.10850981    -0.00000000    -0.00000000  0.21D-14  0.53D-15  6  2   192.34
  26      1.31288330    -0.84322141  -268.10850981    -0.00000000    -0.00000000  0.77D-15  0.15D-15  6  1   199.16
  27      1.31288331    -0.84322141  -268.10850981    -0.00000000    -0.00000000  0.20D-15  0.63D-16  6  3   206.38
  28      1.31288332    -0.84322141  -268.10850981    -0.00000000    -0.00000000  0.30D-16  0.11D-16  6  4   213.27
  29      1.31288332    -0.84322141  -268.10850981    -0.00000000    -0.00000000  0.71D-17  0.29D-17  6  5   220.10
  30      1.31288332    -0.84322141  -268.10850981    -0.00000000    -0.00000000  0.15D-17  0.54D-18  6  6   226.94
  31      1.31288332    -0.84322141  -268.10850981    -0.00000000    -0.00000000  0.35D-18  0.10D-18  6  2   233.78

 Norm of t1 vector:      0.13877169      S-energy:    -0.00282162      T1 diagnostic:  0.01617594
                                                                       D1 diagnostic:  0.06283497
 Norm of t2 vector:      0.54187244      P-energy:    -0.84039979
                                         Alpha-Beta:  -0.66495464
                                         Alpha-Alpha: -0.09147438
                                         Beta-Beta:   -0.08397077

 Spin contamination <S**2-Sz**2-Sz>     0.00217283

 Memory could be reduced to 28.85 Mwords without degradation in triples
 

 RESULTS
 =======

  Reference energy                   -267.265288400358
  UCCSD singles energy                 -0.002821623334
  UCCSD pair energy                    -0.840399791208
  UCCSD correlation energy             -0.843221414542
  Triples (T) contribution             -0.024984891655
  Total correlation energy             -0.868206306197
 
  RHF-UCCSD energy                   -268.108509814900
  RHF-UCCSD[T] energy                -268.134831619606
  RHF-UCCSD-T energy                 -268.133072810020
 !RHF-UCCSD(T) energy                -268.133494706555

 Program statistics:

 Available memory in ccsd:               999997692
 Min. memory needed in ccsd:               7337057
 Max. memory used in ccsd:                10523002
 Max. memory used in cckext:              10867977 (31 integral passes)
 Max. memory used in cckint:              12633073 ( 1 integral passes)



 **********************************************************************************************************************************
 DATASETS  * FILE   NREC   LENGTH (MB)   RECORD NAMES
              1      18        3.17       500      610      700      900      950      970     1000      129      960     1100   
                                          VAR    BASINP    GEOM    SYMINP    ZMAT    AOBASIS   BASIS     P2S    ABASIS      S 
                                         1400     1410     1200     1210     1080     1600     1650     1700   
                                           T        V       H0       H01     AOSYM     SMH    MOLCAS    OPER   

              2       3        0.77       700     1000     2100   
                                         GEOM     BASIS     RHF  

 PROGRAMS   *        TOTAL  UCCSD(T)       RHF       INT
 CPU TIMES  *       297.43    294.81      1.31      1.22
 REAL TIME  *       309.88 SEC
 DISK USED  *         1.29 GB      
 SF USED    *       553.73 MB      
 GA USED    *         0.00 MB       (max)       0.00 MB       (current)
 **********************************************************************************************************************************

        UCCSD(T)        RHF-SCF 
   -268.13349471   -267.26528840
 **********************************************************************************************************************************
 Variable memory released
