
 Primary working directories    : /tmp/320938.906.gen6.q
 Secondary working directories  : /tmp/320938.906.gen6.q
 Wavefunction directory         : /home/vulcan/mel64643/wfu/
 Main file repository           : /tmp/320938.906.gen6.q/

 ARCHNAME  : Linux/x86_64
 FC        : /opt/intel/compilers_and_libraries_2016.1.150/linux/bin/intel64/ifort
 FCVERSION : 16.0.1
 BLASLIB   : -mkl
 id        : ccgc

 Nodes     nprocs
 n083         3
 Number of processes for MPI-2 version of Molpro:   nprocs(total)=    4   nprocs(compute)=    3   nprocs(helper)=    1
 ga_uses_ma=false, calling ma_init with nominal heap.
 GA-space will be limited to   8.0 MW (determined by -G option)

 Using customized tuning parameters: mindgm=10; mindgv=16; mindgc=4; mindgr=1; noblas=0; mincuda=1000; minvec=7
 default implementation of scratch files=sf  

 ***,Frequencies for min3
 memory,1000,m
 gthresh,energy=1.0d-10,orbital=1.0d-10,oneint=1.0d-16,twoint=1.0d-16,optgrad=1.0d-6,compress=1.0d-13
 geomtyp=xyz
 
  geometry = {
  12
  arbitrary comment
     C    1.776964391707    0.711398808326   -0.047331391796
     C    0.491811976407   -0.059992870174   -0.195858138425
     C    0.450910979104   -1.536434136632    0.101246601394
     O   -0.560853871666    0.727252698331    0.254246291334
     O   -1.838063908942    0.092446507074   -0.120541805680
     H    2.585107910887    0.210965197996   -0.611990199645
     H    1.660406369248    1.742534834004   -0.427077634203
     H    2.095135790973    0.773732553658    1.017120638826
     H   -0.505408973737   -1.982799714611   -0.220109034792
     H    1.281323211055   -2.047502133102   -0.417393234119
     H    0.561454991455   -1.719249060635    1.194572530192
     H   -1.988304587312    0.550976231773   -0.967020144088
  }
 
 basis=cc-pvdz
 {rhf;maxit,200}
 {uccsd(t);maxit,200}

 Variables initialized (661), CPU time= 0.00 sec
 Commands  initialized (458), CPU time= 0.01 sec, 486 directives.
 Default parameters read. Elapsed time= 0.05 sec

 Checking input...
 Passed
1


                                         ***  PROGRAM SYSTEM MOLPRO  ***
                         Copyright, University College Cardiff Consultants Limited, 2008

                                    Version 2010.1 linked May 16 2016 07:17:05


 **********************************************************************************************************************************
 LABEL *   Frequencies for min3                                                          
 Linux-4.4.3/n083(x86_64) 64 bit mpp version                                             DATE: 07-Mar-20          TIME: 06:18:34  
 **********************************************************************************************************************************

 SHA1:             9e8077add272b0f3cad6f7df79ec5211205f459d
 **********************************************************************************************************************************

 THRESHOLDS:

 ZERO    =  1.00D-12  ONEINT  =  1.00D-16  TWOINT  =  1.00D-16  PREFAC  =  1.00D-14  LOCALI  =  1.00D-09  EORDER  =  1.00D-04
 ENERGY  =  1.00D-10  ETEST   =  0.00D+00  EDENS   =  0.00D+00  THRDEDEF=  1.00D-06  GRADIENT=  1.00D-02  STEP    =  1.00D-03
 ORBITAL =  1.00D-10  CIVEC   =  1.00D-05  COEFF   =  1.00D-04  PRINTCI =  5.00D-02  PUNCHCI =  9.90D+01  OPTGRAD =  1.00D-06
 OPTENERG=  1.00D-06  OPTSTEP =  3.00D-04  THRGRAD =  1.00D-10  COMPRESS=  1.00D-13  VARMIN  =  1.00D-07  VARMAX  =  1.00D-03
 THRDOUB =  0.00D+00  THRDIV  =  1.00D-05  THRRED  =  1.00D-07  THRPSP  =  1.00D+00  THRDC   =  1.00D-10  THRCS   =  1.00D-10
 THRNRM  =  1.00D-08  THREQ   =  0.00D+00  THRDE   =  1.00D+00  THRREF  =  1.00D-05  SPARFAC =  1.00D+00  THRDLP  =  1.00D-07
 THRDIA  =  1.00D-10  THRDLS  =  1.00D-07  THRGPS  =  0.00D+00  THRKEX  =  0.00D+00  THRDIS  =  2.00D-01  THRVAR  =  1.00D-10
 THRLOC  =  1.00D-06  THRGAP  =  1.00D-06  THRLOCT = -1.00D+00  THRGAPT = -1.00D+00  THRORB  =  1.00D-06  THRMLTP =  0.00D+00
 THRCPQCI=  1.00D-10  KEXTA   =  0.00D+00  THRCOARS=  0.00D+00  SYMTOL  =  1.00D-06  GRADTOL =  1.00D-06  THROVL  =  1.00D-08
 THRORTH =  1.00D-08  GRID    =  1.00D-06  GRIDMAX =  1.00D-03  DTMAX   =  0.00D+00

 SETTING GEOMTYP        =    XYZ

 Variable memory set to 1000000000 words,  buffer space   230000 words

 SETTING BASIS          =    CC-PVDZ


 Recomputing integrals since basis changed


 Using spherical harmonics

 Library entry C      S cc-pVDZ              selected for orbital group  1
 Library entry C      P cc-pVDZ              selected for orbital group  1
 Library entry C      D cc-pVDZ              selected for orbital group  1
 Library entry O      S cc-pVDZ              selected for orbital group  2
 Library entry O      P cc-pVDZ              selected for orbital group  2
 Library entry O      D cc-pVDZ              selected for orbital group  2
 Library entry H      S cc-pVDZ              selected for orbital group  3
 Library entry H      P cc-pVDZ              selected for orbital group  3

1PROGRAM * SEWARD (Integral evaluation for generally contracted gaussian basis sets)     Author: Roland Lindh, 1990

 Geometry written to block  1 of record 700


 Point group  C1  



 ATOMIC COORDINATES

 NR  ATOM    CHARGE       X              Y              Z

   1  C       6.00    3.357976046    1.344348918   -0.089443368
   2  C       6.00    0.929389944   -0.113370094   -0.370118242
   3  C       6.00    0.852098260   -2.903439737    0.191328348
   4  O       8.00   -1.059860217    1.374308428    0.480455861
   5  O       8.00   -3.473437400    0.174698580   -0.227791000
   6  H       1.00    4.885145972    0.398666447   -1.156493872
   7  H       1.00    3.137713305    3.292913611   -0.807059765
   8  H       1.00    3.959232853    1.462142625    1.922079450
   9  H       1.00   -0.955084545   -3.746948434   -0.415945795
  10  H       1.00    2.421349955   -3.869218285   -0.788758902
  11  H       1.00    1.060996169   -3.248909876    2.257414926
  12  H       1.00   -3.757351136    1.041194183   -1.827403236

 Bond lengths in Bohr (Angstrom)

 1-2  2.846357946  1-6  2.089296556  1-7  2.088155485  1-8  2.102762267  2-3  2.847048452
     ( 1.506227754)     ( 1.105608120)     ( 1.105004292)     ( 1.112733868)     ( 1.506593154)

  2- 4  2.625600863   3- 9  2.084753822   3-10  2.087067345   3-11  2.105160730   4- 5  2.786760166
       ( 1.389408137)       ( 1.103204209)       ( 1.104428473)       ( 1.114003080)       ( 1.474689967)

  5-12  1.841244401
       ( 0.974344573)

 Bond angles

  1-2-3  120.37137666   1-2-4  108.92389782   2-1-6  109.96796622   2-1-7  110.73287043

  2- 1- 8  111.52994003   2- 3- 9  111.25997707   2- 3-10  109.90516390   2- 3-11  110.58954180

  2- 4- 5  109.26524994   3- 2- 4  118.08703843   4- 5-12   98.72910066   6- 1- 7  108.90263758

  6- 1- 8  107.75290419   7- 1- 8  107.85663350   9- 3-10  109.13300644   9- 3-11  107.78865832

 10- 3-11  108.07931630

 NUCLEAR CHARGE:                   41
 NUMBER OF PRIMITIVE AOS:         184
 NUMBER OF SYMMETRY AOS:          179
 NUMBER OF CONTRACTIONS:          105   ( 105A   )
 NUMBER OF CORE ORBITALS:           5   (   5A   )
 NUMBER OF VALENCE ORBITALS:       27   (  27A   )


 NUCLEAR REPULSION ENERGY  183.22265432


 Eigenvalues of metric

         1 0.345E-02 0.435E-02 0.105E-01 0.141E-01 0.182E-01 0.214E-01 0.331E-01 0.345E-01


 Contracted 2-electron integrals neglected if value below      1.0D-16
 AO integral compression algorithm  1   Integral accuracy      1.0D-16

     127.402 MB (compressed) written to integral file ( 93.4%)

     Node minimum: 40.632 MB, node maximum: 43.778 MB


 NUMBER OF SORTED TWO-ELECTRON INTEGRALS:    5164320.     BUFFER LENGTH:  32768
 NUMBER OF SEGMENTS:   1  SEGMENT LENGTH:    5164320      RECORD LENGTH: 524288

 Memory used in sort:       5.72 MW

 SORT1 READ    17075251. AND WROTE     5135901. INTEGRALS IN     15 RECORDS. CPU TIME:     0.19 SEC, REAL TIME:     0.23 SEC
 SORT2 READ    15396623. AND WROTE    15487395. INTEGRALS IN    501 RECORDS. CPU TIME:     0.06 SEC, REAL TIME:     0.09 SEC

 Node minimum:     5160610.  Node maximum:     5164320. integrals

 OPERATOR DM      FOR CENTER  0  COORDINATES:    0.000000    0.000000    0.000000


 **********************************************************************************************************************************
 DATASETS  * FILE   NREC   LENGTH (MB)   RECORD NAMES
              1      18        3.17       500      610      700      900      950      970     1000      129      960     1100   
                                          VAR    BASINP    GEOM    SYMINP    ZMAT    AOBASIS   BASIS     P2S    ABASIS      S 
                                         1400     1410     1200     1210     1080     1600     1650     1700   
                                           T        V       H0       H01     AOSYM     SMH    MOLCAS    OPER   

 PROGRAMS   *        TOTAL       INT
 CPU TIMES  *         0.81      0.74
 REAL TIME  *         1.22 SEC
 DISK USED  *       305.70 MB      
 GA USED    *         0.00 MB       (max)       0.00 MB       (current)
 **********************************************************************************************************************************

1PROGRAM * RHF-SCF (OPEN SHELL)       Authors: W. Meyer, H.-J. Werner


 NUMBER OF ELECTRONS:      21+   20-    SPACE SYMMETRY=1    SPIN SYMMETRY: Doublet 
 CONVERGENCE THRESHOLDS:    1.00E-10 (Density)    1.00E-11 (Energy)
 MAX. NUMBER OF ITERATIONS:      200
 INTERPOLATION TYPE:            DIIS
 INTERPOLATION STEPS:              2 (START)      1 (STEP)
 LEVEL SHIFTS:                 -0.30 (CLOSED)  0.00 (OPEN) 



 Orbital guess generated from atomic densities. Full valence occupancy:   32

 Molecular orbital dump at record        2100.2

 ITERATION    DDIFF          GRAD             ENERGY        2-EL.EN.            DIPOLE MOMENTS         DIIS
    1      0.000D+00      0.000D+00      -267.17824384    555.819213    0.56962    0.04890   -0.74964    0
    2      0.000D+00      0.617D-02      -267.24891705    555.739397    0.41376   -0.13128   -0.59887    1
    3      0.927D-02      0.214D-02      -267.26109975    555.657592    0.39350   -0.05929   -0.62608    2
    4      0.336D-02      0.912D-03      -267.26471369    555.809909    0.37891   -0.09942   -0.64243    3
    5      0.186D-02      0.364D-03      -267.26528482    555.781300    0.38146   -0.09294   -0.63541    4
    6      0.793D-03      0.110D-03      -267.26536179    555.767557    0.37972   -0.09274   -0.63814    5
    7      0.278D-03      0.513D-04      -267.26538210    555.764552    0.37900   -0.09248   -0.63764    6
    8      0.144D-03      0.273D-04      -267.26538821    555.762602    0.37927   -0.09260   -0.63786    7
    9      0.928D-04      0.115D-04      -267.26538913    555.762923    0.37945   -0.09255   -0.63762    8
   10      0.367D-04      0.502D-05      -267.26538929    555.763534    0.37971   -0.09257   -0.63768    9
   11      0.147D-04      0.197D-05      -267.26538931    555.763375    0.37976   -0.09256   -0.63769    9
   12      0.652D-05      0.672D-06      -267.26538932    555.763509    0.37978   -0.09256   -0.63768    9
   13      0.228D-05      0.227D-06      -267.26538932    555.763425    0.37978   -0.09256   -0.63768    9
   14      0.634D-06      0.761D-07      -267.26538932    555.763434    0.37978   -0.09256   -0.63768    9
   15      0.194D-06      0.302D-07      -267.26538932    555.763430    0.37978   -0.09256   -0.63768    9
   16      0.831D-07      0.146D-07      -267.26538932    555.763431    0.37978   -0.09256   -0.63768    9
   17      0.378D-07      0.758D-08      -267.26538932    555.763431    0.37978   -0.09256   -0.63768    9
   18      0.225D-07      0.344D-08      -267.26538932    555.763431    0.37978   -0.09256   -0.63768    9
   19      0.115D-07      0.134D-08      -267.26538932    555.763431    0.37978   -0.09256   -0.63768    9
   20      0.446D-08      0.572D-09      -267.26538932    555.763431    0.37978   -0.09256   -0.63768    9
   21      0.167D-08      0.289D-09      -267.26538932    555.763431    0.37978   -0.09256   -0.63768    9
   22      0.762D-09      0.163D-09      -267.26538932    555.763431    0.37978   -0.09256   -0.63768    9
   23      0.449D-09      0.802D-10      -267.26538932    555.763431    0.37978   -0.09256   -0.63768    9
   24      0.265D-09      0.320D-10      -267.26538932    555.763431    0.37978   -0.09256   -0.63768    9
   25      0.940D-10      0.130D-10      -267.26538932    555.763431    0.37978   -0.09256   -0.63768    0

 Final alpha occupancy:  21
 Final beta  occupancy:  20

 !RHF STATE 1.1 Energy               -267.265389316906
 Nuclear energy                       183.22265432
 One-electron energy                 -728.36975925
 Two-electron energy                  277.88171561
 Virial quotient                       -1.00155239
 !RHF STATE 1.1 Dipole moment           0.37978478    -0.09256446    -0.63768026
 Dipole moment /Debye                   0.96525340    -0.23525997    -1.62071540

 Orbital energies:

         1.1          2.1          3.1          4.1          5.1          6.1          7.1          8.1          9.1         10.1
    -20.630490   -20.628837   -11.279168   -11.237829   -11.232185    -1.470192    -1.240790    -1.023238    -0.945343    -0.768471

        11.1         12.1         13.1         14.1         15.1         16.1         17.1         18.1         19.1         20.1
     -0.704625    -0.642970    -0.626769    -0.588915    -0.545006    -0.543499    -0.539077    -0.516943    -0.493028    -0.469760

        21.1         22.1         23.1
     -0.352058     0.181266     0.183525


 **********************************************************************************************************************************
 DATASETS  * FILE   NREC   LENGTH (MB)   RECORD NAMES
              1      18        3.17       500      610      700      900      950      970     1000      129      960     1100   
                                          VAR    BASINP    GEOM    SYMINP    ZMAT    AOBASIS   BASIS     P2S    ABASIS      S 
                                         1400     1410     1200     1210     1080     1600     1650     1700   
                                           T        V       H0       H01     AOSYM     SMH    MOLCAS    OPER   

              2       3        0.77       700     1000     2100   
                                         GEOM     BASIS     RHF  

 PROGRAMS   *        TOTAL       RHF       INT
 CPU TIMES  *         1.72      0.91      0.74
 REAL TIME  *         2.29 SEC
 DISK USED  *       322.27 MB      
 SF USED    *         0.04 MB      
 GA USED    *         0.00 MB       (max)       0.00 MB       (current)
 **********************************************************************************************************************************


1PROGRAM * CCSD (Unrestricted open-shell coupled cluster)     Authors: C. Hampel, H.-J. Werner, 1991, M. Deegan, P.J. Knowles, 1992


 Convergence thresholds:  THRVAR = 1.00D-08  THRDEN = 1.00D-10

 CCSD(T)     terms to be evaluated (factor= 1.000)


 Number of core orbitals:           5 (   5 )
 Number of closed-shell orbitals:  15 (  15 )
 Number of active  orbitals:        1 (   1 )
 Number of external orbitals:      84 (  84 )

 Memory could be reduced to 24.91 Mwords without degradation in triples

 Number of N-1 electron functions:              31
 Number of N-2 electron functions:             465
 Number of singly external CSFs:              2635
 Number of doubly external CSFs:           2537250
 Total number of CSFs:                     2539885

 Molecular orbitals read from record     2100.2  Type=RHF/CANONICAL (state 1.1)

 Integral transformation finished. Total CPU:   0.92 sec, npass=  1  Memory used:  12.63 MW

 Starting RMP2 calculation

 ITER.      SQ.NORM     CORR.ENERGY   TOTAL ENERGY   ENERGY CHANGE        DEN1      VAR(S)    VAR(P)  DIIS     TIME
   1      1.24302638    -0.78638022  -268.05176953    -0.78638022    -0.00304943  0.20D-04  0.11D-02  1  1     1.25
   2      1.24566739    -0.78966880  -268.05505811    -0.00328858    -0.00000474  0.54D-06  0.19D-05  2  2     1.53
   3      1.24573292    -0.78971085  -268.05510017    -0.00004205    -0.00000003  0.16D-07  0.68D-08  3  3     1.82
   4      1.24573388    -0.78971085  -268.05510017    -0.00000000    -0.00000000  0.27D-09  0.38D-10  4  4     2.14
   5      1.24573396    -0.78971088  -268.05510020    -0.00000003    -0.00000000  0.25D-11  0.65D-12  5  5     2.48
   6      1.24573397    -0.78971089  -268.05510021    -0.00000001    -0.00000000  0.28D-13  0.86D-14  6  6     2.84
   7      1.24573397    -0.78971089  -268.05510021     0.00000000    -0.00000000  0.47D-15  0.12D-15  6  1     3.20
   8      1.24573397    -0.78971089  -268.05510021     0.00000000    -0.00000000  0.60D-17  0.13D-17  6  2     3.56

 Norm of t1 vector:      0.03894815      S-energy:    -0.00227350      T1 diagnostic:  0.00055006
 Norm of t2 vector:      0.49418318      P-energy:    -0.78743739
                                         Alpha-Beta:  -0.59341460
                                         Alpha-Alpha: -0.10094295
                                         Beta-Beta:   -0.09307984

 Spin contamination <S**2-Sz**2-Sz>     0.00104081
  Reference energy                   -267.265389316904
  RHF-RMP2 correlation energy          -0.789710888695
 !RHF-RMP2 energy                    -268.055100205599

 Starting UCCSD calculation

 ITER.      SQ.NORM     CORR.ENERGY   TOTAL ENERGY   ENERGY CHANGE        DEN1      VAR(S)    VAR(P)  DIIS     TIME
   1      1.26279975    -0.80905201  -268.07444133    -0.80905201    -0.02515487  0.38D-02  0.59D-02  1  1     9.80
   2      1.29157251    -0.83646013  -268.10184945    -0.02740812    -0.00201088  0.22D-03  0.66D-03  2  2    16.02
   3      1.30151285    -0.84095793  -268.10634724    -0.00449779    -0.00032458  0.19D-03  0.56D-04  3  3    22.25
   4      1.30642577    -0.84243490  -268.10782422    -0.00147697    -0.00007208  0.43D-04  0.14D-04  4  4    28.52
   5      1.30915567    -0.84282298  -268.10821230    -0.00038808    -0.00002368  0.19D-04  0.32D-05  5  5    34.81
   6      1.31109553    -0.84302748  -268.10841679    -0.00020449    -0.00000647  0.42D-05  0.12D-05  6  6    41.11
   7      1.31204614    -0.84308633  -268.10847564    -0.00005885    -0.00000209  0.14D-05  0.37D-06  6  2    47.33
   8      1.31248902    -0.84312908  -268.10851839    -0.00004275    -0.00000066  0.45D-06  0.11D-06  6  1    53.50
   9      1.31267524    -0.84313370  -268.10852301    -0.00000462    -0.00000022  0.15D-06  0.35D-07  6  4    58.70
  10      1.31273885    -0.84313664  -268.10852596    -0.00000294    -0.00000005  0.35D-07  0.96D-08  6  3    64.66
  11      1.31276852    -0.84313539  -268.10852470     0.00000125    -0.00000002  0.13D-07  0.28D-08  6  5    70.41
  12      1.31277897    -0.84313513  -268.10852445     0.00000026    -0.00000000  0.26D-08  0.96D-09  6  6    76.09
  13      1.31277782    -0.84313421  -268.10852353     0.00000092    -0.00000000  0.96D-09  0.29D-09  6  2    81.84
  14      1.31277261    -0.84313336  -268.10852268     0.00000085    -0.00000000  0.21D-09  0.68D-10  6  1    87.58
  15      1.31276853    -0.84313278  -268.10852209     0.00000059    -0.00000000  0.78D-10  0.19D-10  6  4    93.31
  16      1.31276534    -0.84313239  -268.10852171     0.00000038    -0.00000000  0.28D-10  0.63D-11  6  3    99.06
  17      1.31276313    -0.84313215  -268.10852147     0.00000024    -0.00000000  0.10D-10  0.24D-11  6  5   104.81
  18      1.31276223    -0.84313209  -268.10852141     0.00000006    -0.00000000  0.41D-11  0.87D-12  6  6   110.50
  19      1.31276161    -0.84313206  -268.10852138     0.00000003    -0.00000000  0.16D-11  0.37D-12  6  2   116.25
  20      1.31276129    -0.84313205  -268.10852136     0.00000001    -0.00000000  0.60D-12  0.13D-12  6  1   121.98
  21      1.31276113    -0.84313204  -268.10852135     0.00000001    -0.00000000  0.28D-12  0.58D-13  6  4   127.72
  22      1.31276100    -0.84313203  -268.10852134     0.00000001    -0.00000000  0.74D-13  0.22D-13  6  3   133.47
  23      1.31276095    -0.84313202  -268.10852134     0.00000000    -0.00000000  0.22D-13  0.63D-14  6  5   139.22
  24      1.31276094    -0.84313203  -268.10852134    -0.00000000    -0.00000000  0.68D-14  0.23D-14  6  6   144.93
  25      1.31276094    -0.84313203  -268.10852134    -0.00000000    -0.00000000  0.21D-14  0.53D-15  6  2   150.68
  26      1.31276095    -0.84313203  -268.10852134    -0.00000000    -0.00000000  0.77D-15  0.15D-15  6  1   156.43
  27      1.31276096    -0.84313203  -268.10852135    -0.00000000    -0.00000000  0.20D-15  0.63D-16  6  3   162.18
  28      1.31276097    -0.84313203  -268.10852135    -0.00000000    -0.00000000  0.30D-16  0.11D-16  6  4   167.94
  29      1.31276097    -0.84313203  -268.10852135    -0.00000000    -0.00000000  0.71D-17  0.29D-17  6  5   173.67
  30      1.31276097    -0.84313203  -268.10852135    -0.00000000    -0.00000000  0.15D-17  0.54D-18  6  6   179.40
  31      1.31276097    -0.84313203  -268.10852135    -0.00000000    -0.00000000  0.36D-18  0.11D-18  6  2   185.11

 Norm of t1 vector:      0.13872792      S-energy:    -0.00282352      T1 diagnostic:  0.01616913
                                                                       D1 diagnostic:  0.06278892
 Norm of t2 vector:      0.54177074      P-energy:    -0.84030851
                                         Alpha-Beta:  -0.66486136
                                         Alpha-Alpha: -0.09147596
                                         Beta-Beta:   -0.08397119

 Spin contamination <S**2-Sz**2-Sz>     0.00217530

 Memory could be reduced to 28.85 Mwords without degradation in triples
 

 RESULTS
 =======

  Reference energy                   -267.265389316904
  UCCSD singles energy                 -0.002823515397
  UCCSD pair energy                    -0.840308513461
  UCCSD correlation energy             -0.843132028858
  Triples (T) contribution             -0.024975092090
  Total correlation energy             -0.868107120948
 
  RHF-UCCSD energy                   -268.108521345762
  RHF-UCCSD[T] energy                -268.134831920812
  RHF-UCCSD-T energy                 -268.133075143668
 !RHF-UCCSD(T) energy                -268.133496437853

 Program statistics:

 Available memory in ccsd:               999997692
 Min. memory needed in ccsd:               7337057
 Max. memory used in ccsd:                10523002
 Max. memory used in cckext:              10867977 (31 integral passes)
 Max. memory used in cckint:              12633073 ( 1 integral passes)



 **********************************************************************************************************************************
 DATASETS  * FILE   NREC   LENGTH (MB)   RECORD NAMES
              1      18        3.17       500      610      700      900      950      970     1000      129      960     1100   
                                          VAR    BASINP    GEOM    SYMINP    ZMAT    AOBASIS   BASIS     P2S    ABASIS      S 
                                         1400     1410     1200     1210     1080     1600     1650     1700   
                                           T        V       H0       H01     AOSYM     SMH    MOLCAS    OPER   

              2       3        0.77       700     1000     2100   
                                         GEOM     BASIS     RHF  

 PROGRAMS   *        TOTAL  UCCSD(T)       RHF       INT
 CPU TIMES  *       226.25    224.53      0.91      0.74
 REAL TIME  *       235.57 SEC
 DISK USED  *         1.29 GB      
 SF USED    *       553.73 MB      
 GA USED    *         0.00 MB       (max)       0.00 MB       (current)
 **********************************************************************************************************************************

        UCCSD(T)        RHF-SCF 
   -268.13349644   -267.26538932
 **********************************************************************************************************************************
 Variable memory released
