
    -----------------------------------------------------------------------
          Psi4: An Open-Source Ab Initio Electronic Structure Package
                               Psi4 1.4a2.dev478 

                         Git: Rev {master} f722895 dirty


    R. M. Parrish, L. A. Burns, D. G. A. Smith, A. C. Simmonett,
    A. E. DePrince III, E. G. Hohenstein, U. Bozkaya, A. Yu. Sokolov,
    R. Di Remigio, R. M. Richard, J. F. Gonthier, A. M. James,
    H. R. McAlexander, A. Kumar, M. Saitow, X. Wang, B. P. Pritchard,
    P. Verma, H. F. Schaefer III, K. Patkowski, R. A. King, E. F. Valeev,
    F. A. Evangelista, J. M. Turney, T. D. Crawford, and C. D. Sherrill,
    J. Chem. Theory Comput. 13(7) pp 3185--3197 (2017).
    (doi: 10.1021/acs.jctc.7b00174)


                         Additional Contributions by
    P. Kraus, H. Kruse, M. H. Lechner, M. C. Schieber, R. A. Shaw,
    A. Alenaizan, R. Galvelis, Z. L. Glick, S. Lehtola, and J. P. Misiewicz

    -----------------------------------------------------------------------


    Psi4 started on: Friday, 05 June 2020 11:38AM

    Process ID: 2978
    Host:       n077
    PSIDATADIR: /opt/psi/4/master/share/psi4
    Memory:     500.0 MiB
    Threads:    4
    
  ==> Input File <==

--------------------------------------------------------------------------
set memory 40Gb

molecule {
    C   -1.169969463277   -0.774075714550   -0.000125580240
    H   -1.617202611977   -1.211544387650   -0.890367767540
    H   -1.614700581328   -1.211655585612    0.889921818307
    C   -1.170096381153    0.773958242062    0.000006866093
    H   -1.617467231957    1.211370812840    0.890207301405
    H   -1.617361245074    1.211570975718   -0.890147846345
    C    0.356730207121    0.920119392468    0.000110371694
    H    0.841173443759    1.891585461591    0.000241032475
    O    0.760941871803    0.000139178841   -1.017863679059
    C    0.356788413423   -0.920077115054   -0.000079200636
    H    0.841293718380   -1.891512210079   -0.000146059411
    O    0.760808559364   -0.000071112133    1.017947725731
}

set {
    e_convergence 10
    d_convergence 10
    freeze_core True
    basis_guess True
    cc_type conv
    maxiter 300
}

E = energy('mp2/heavy-aug-cc-pV(Q+d)Z')
psi4.print_out("\n========================OPTAVC-XTPL==========================\n\n")
psi4.print_out("MP2/QZ correlation energy {}\n".format(variable("MP2 CORRELATION ENERGY")))
psi4.print_out("SCF/QZ reference energy {}\n".format(variable("CURRENT REFERENCE ENERGY")))
psi4.print_out("\n\n=============================================================\n")

E = energy('mp2/heavy-aug-cc-pV(T+d)Z')
psi4.print_out("\n========================OPTAVC-XTPL==========================\n\n")
psi4.print_out("MP2/TZ correlation energy {}".format(variable("MP2 CORRELATION ENERGY")))
psi4.print_out("\n\n=============================================================\n")
--------------------------------------------------------------------------

Scratch directory: /tmp/

Scratch directory: /tmp/
    SCF Algorithm Type (re)set to DF.

*** tstart() called on n077
*** at Fri Jun  5 11:38:35 2020


  //>>>>>>>>>>>>>>>>>>>>>>>>>>>>>>>>>>>//
  //      Guess SCF, pcseg-0 Basis     //
  //<<<<<<<<<<<<<<<<<<<<<<<<<<<<<<<<<<<//

   => Loading Basis Set <=

    Name: PCSEG-0
    Role: ORBITAL
    Keyword: BASIS
    atoms 1, 4, 7, 10     entry C          line    71 file /opt/psi/4/master/share/psi4/basis/pcseg-0.gbs 
    atoms 2-3, 5-6, 8, 11 entry H          line    13 file /opt/psi/4/master/share/psi4/basis/pcseg-0.gbs 
    atoms 9, 12           entry O          line   103 file /opt/psi/4/master/share/psi4/basis/pcseg-0.gbs 


         ---------------------------------------------------------
                           SCF Castup computation                  
         ---------------------------------------------------------
                                   SCF
               by Justin Turney, Rob Parrish, Andy Simmonett
                          and Daniel G. A. Smith
                              RHF Reference
                        4 Threads,    500 MiB Core
         ---------------------------------------------------------

  ==> Geometry <==

    Molecular point group: c1
    Full point group: C1

    Geometry (in Angstrom), charge = 0, multiplicity = 1:

       Center              X                  Y                   Z               Mass       
    ------------   -----------------  -----------------  -----------------  -----------------
         C           -1.169969463277    -0.774075714550    -0.000125580240    12.000000000000
         H           -1.617202611977    -1.211544387650    -0.890367767540     1.007825032230
         H           -1.614700581328    -1.211655585612     0.889921818307     1.007825032230
         C           -1.170096381153     0.773958242062     0.000006866093    12.000000000000
         H           -1.617467231957     1.211370812840     0.890207301405     1.007825032230
         H           -1.617361245074     1.211570975718    -0.890147846345     1.007825032230
         C            0.356730207121     0.920119392468     0.000110371694    12.000000000000
         H            0.841173443759     1.891585461591     0.000241032475     1.007825032230
         O            0.760941871803     0.000139178841    -1.017863679059    15.994914619570
         C            0.356788413423    -0.920077115054    -0.000079200636    12.000000000000
         H            0.841293718380    -1.891512210079    -0.000146059411     1.007825032230
         O            0.760808559364    -0.000071112133     1.017947725731    15.994914619570

  Running in c1 symmetry.

  Rotational constants: A =      0.20029  B =      0.16409  C =      0.14759 [cm^-1]
  Rotational constants: A =   6004.58239  B =   4919.34744  C =   4424.67170 [MHz]
  Nuclear repulsion =  258.074021286080324

  Charge       = 0
  Multiplicity = 1
  Electrons    = 46
  Nalpha       = 23
  Nbeta        = 23

  ==> Algorithm <==

  SCF Algorithm Type is DF.
  DIIS enabled.
  MOM disabled.
  Fractional occupation disabled.
  Guess Type is SAD.
  Energy threshold   = 1.00e-10
  Density threshold  = 1.00e-10
  Integral threshold = 0.00e+00

  ==> Primary Basis <==

  Basis Set: PCSEG-0
    Blend: PCSEG-0
    Number of shells: 42
    Number of basis function: 66
    Number of Cartesian functions: 66
    Spherical Harmonics?: true
    Max angular momentum: 1

   => Loading Basis Set <=

    Name: (PCSEG-0 AUX)
    Role: JKFIT
    Keyword: DF_BASIS_SCF
    atoms 1, 4, 7, 10     entry C          line   198 file /opt/psi/4/master/share/psi4/basis/def2-universal-jkfit.gbs 
    atoms 2-3, 5-6, 8, 11 entry H          line    18 file /opt/psi/4/master/share/psi4/basis/def2-universal-jkfit.gbs 
    atoms 9, 12           entry O          line   318 file /opt/psi/4/master/share/psi4/basis/def2-universal-jkfit.gbs 

  ==> Integral Setup <==

  ==> DiskDFJK: Density-Fitted J/K Matrices <==

    J tasked:                  Yes
    K tasked:                  Yes
    wK tasked:                  No
    OpenMP threads:              4
    Integrals threads:           4
    Memory [MiB]:              375
    Algorithm:                Core
    Integral Cache:           NONE
    Schwarz Cutoff:          1E-12
    Fitting Condition:       1E-10

   => Auxiliary Basis Set <=

  Basis Set: (PCSEG-0 AUX)
    Blend: DEF2-UNIVERSAL-JKFIT
    Number of shells: 186
    Number of basis function: 562
    Number of Cartesian functions: 662
    Spherical Harmonics?: true
    Max angular momentum: 4

  Minimum eigenvalue in the overlap matrix is 1.2753376943E-03.
  Reciprocal condition number of the overlap matrix is 2.0992580521E-04.
    Using symmetric orthogonalization.

  ==> Pre-Iterations <==

  SCF Guess: Superposition of Atomic Densities via on-the-fly atomic UHF (no occupation information).

   -------------------------
    Irrep   Nso     Nmo    
   -------------------------
     A         66      66 
   -------------------------
    Total      66      66
   -------------------------

  ==> Iterations <==

                           Total Energy        Delta E     RMS |[F,P]|

   @DF-RHF iter SAD:  -303.78414496417253   -3.03784e+02   0.00000e+00 
   @DF-RHF iter   1:  -303.56518590571949    2.18959e-01   7.21001e-03 DIIS
   @DF-RHF iter   2:  -303.66410187271600   -9.89160e-02   3.86668e-03 DIIS
   @DF-RHF iter   3:  -303.68845208577574   -2.43502e-02   6.09813e-04 DIIS
   @DF-RHF iter   4:  -303.68959204455427   -1.13996e-03   1.89662e-04 DIIS
   @DF-RHF iter   5:  -303.68968043383865   -8.83893e-05   4.01090e-05 DIIS
   @DF-RHF iter   6:  -303.68968755128680   -7.11745e-06   8.08775e-06 DIIS
   @DF-RHF iter   7:  -303.68968792269726   -3.71410e-07   1.66896e-06 DIIS
   @DF-RHF iter   8:  -303.68968793576357   -1.30663e-08   5.23016e-07 DIIS
   @DF-RHF iter   9:  -303.68968793709382   -1.33025e-09   1.00001e-07 DIIS
   @DF-RHF iter  10:  -303.68968793715726   -6.34373e-11   1.69094e-08 DIIS
   @DF-RHF iter  11:  -303.68968793715885   -1.59162e-12   2.52752e-09 DIIS
   @DF-RHF iter  12:  -303.68968793715914   -2.84217e-13   5.86043e-10 DIIS
   @DF-RHF iter  13:  -303.68968793715908    5.68434e-14   2.44591e-10 DIIS
   @DF-RHF iter  14:  -303.68968793715891    1.70530e-13   4.97044e-11 DIIS
  Energy and wave function converged.


  ==> Post-Iterations <==

    Orbital Energies [Eh]
    ---------------------

    Doubly Occupied:                                                      

       1A    -20.583836     2A    -20.583758     3A    -11.368386  
       4A    -11.368351     5A    -11.254686     6A    -11.254263  
       7A     -1.548720     8A     -1.317303     9A     -1.091272  
      10A     -1.011065    11A     -0.822345    12A     -0.787948  
      13A     -0.770580    14A     -0.684651    15A     -0.664468  
      16A     -0.661844    17A     -0.555060    18A     -0.534511  
      19A     -0.528195    20A     -0.525224    21A     -0.518463  
      22A     -0.467586    23A     -0.441352  

    Virtual:                                                              

      24A      0.203704    25A      0.232934    26A      0.236674  
      27A      0.242145    28A      0.254647    29A      0.267698  
      30A      0.316092    31A      0.351963    32A      0.354582  
      33A      0.388108    34A      0.408858    35A      0.474162  
      36A      0.575702    37A      0.796139    38A      0.799743  
      39A      0.821220    40A      0.924831    41A      0.934099  
      42A      0.944630    43A      0.951821    44A      1.004207  
      45A      1.005558    46A      1.033496    47A      1.061434  
      48A      1.071808    49A      1.136253    50A      1.149838  
      51A      1.171683    52A      1.173081    53A      1.210817  
      54A      1.239365    55A      1.422502    56A      1.454500  
      57A      1.484916    58A      1.525926    59A      1.692265  
      60A      1.710143    61A      1.929896    62A      1.952669  
      63A      2.144768    64A      2.303181    65A      2.379105  
      66A      2.449493  

    Final Occupation by Irrep:
              A 
    DOCC [    23 ]

  @DF-RHF Final Energy:  -303.68968793715891

   => Energetics <=

    Nuclear Repulsion Energy =            258.0740212860803240
    One-Electron Energy =                -924.8396904889852976
    Two-Electron Energy =                 363.0759812657460657
    Total Energy =                       -303.6896879371589080

Computation Completed

  //>>>>>>>>>>>>>>>>>>>>>>>>>>>>>>>>>>>//
  //                SCF                //
  //<<<<<<<<<<<<<<<<<<<<<<<<<<<<<<<<<<<//

   => Loading Basis Set <=

    Name: HEAVY-AUG-CC-PV(Q+D)Z
    Role: ORBITAL
    Keyword: BASIS
    atoms 1, 4, 7, 10     entry C          line   333 file /opt/psi/4/master/share/psi4/basis/heavy-aug-cc-pv_qpd_z.gbs 
    atoms 2-3, 5-6, 8, 11 entry H          line    86 file /opt/psi/4/master/share/psi4/basis/heavy-aug-cc-pv_qpd_z.gbs 
    atoms 9, 12           entry O          line   453 file /opt/psi/4/master/share/psi4/basis/heavy-aug-cc-pv_qpd_z.gbs 


         ---------------------------------------------------------
                                   SCF
               by Justin Turney, Rob Parrish, Andy Simmonett
                          and Daniel G. A. Smith
                              RHF Reference
                        4 Threads,    500 MiB Core
         ---------------------------------------------------------

  ==> Geometry <==

    Molecular point group: c1
    Full point group: C1

    Geometry (in Angstrom), charge = 0, multiplicity = 1:

       Center              X                  Y                   Z               Mass       
    ------------   -----------------  -----------------  -----------------  -----------------
         C           -1.169969463277    -0.774075714550    -0.000125580240    12.000000000000
         H           -1.617202611977    -1.211544387650    -0.890367767540     1.007825032230
         H           -1.614700581328    -1.211655585612     0.889921818307     1.007825032230
         C           -1.170096381153     0.773958242062     0.000006866093    12.000000000000
         H           -1.617467231957     1.211370812840     0.890207301405     1.007825032230
         H           -1.617361245074     1.211570975718    -0.890147846345     1.007825032230
         C            0.356730207121     0.920119392468     0.000110371694    12.000000000000
         H            0.841173443759     1.891585461591     0.000241032475     1.007825032230
         O            0.760941871803     0.000139178841    -1.017863679059    15.994914619570
         C            0.356788413423    -0.920077115054    -0.000079200636    12.000000000000
         H            0.841293718380    -1.891512210079    -0.000146059411     1.007825032230
         O            0.760808559364    -0.000071112133     1.017947725731    15.994914619570

  Running in c1 symmetry.

  Rotational constants: A =      0.20029  B =      0.16409  C =      0.14759 [cm^-1]
  Rotational constants: A =   6004.58239  B =   4919.34744  C =   4424.67170 [MHz]
  Nuclear repulsion =  258.074021286080324

  Charge       = 0
  Multiplicity = 1
  Electrons    = 46
  Nalpha       = 23
  Nbeta        = 23

  ==> Algorithm <==

  SCF Algorithm Type is DF.
  DIIS enabled.
  MOM disabled.
  Fractional occupation disabled.
  Guess Type is SAD.
  Energy threshold   = 1.00e-10
  Density threshold  = 1.00e-10
  Integral threshold = 0.00e+00

  ==> Primary Basis <==

  Basis Set: HEAVY-AUG-CC-PV(Q+D)Z
    Blend: HEAVY-AUG-CC-PV(Q+D)Z
    Number of shells: 180
    Number of basis function: 660
    Number of Cartesian functions: 840
    Spherical Harmonics?: true
    Max angular momentum: 4

   => Loading Basis Set <=

    Name: (HEAVY-AUG-CC-PV(Q+D)Z AUX)
    Role: JKFIT
    Keyword: DF_BASIS_SCF
    atoms 1, 4, 7, 10     entry C          line   214 file /opt/psi/4/master/share/psi4/basis/heavy-aug-cc-pvqz-jkfit.gbs 
    atoms 2-3, 5-6, 8, 11 entry H          line   116 file /opt/psi/4/master/share/psi4/basis/heavy-aug-cc-pvqz-jkfit.gbs 
    atoms 9, 12           entry O          line   354 file /opt/psi/4/master/share/psi4/basis/heavy-aug-cc-pvqz-jkfit.gbs 


  Computing basis projection from PCSEG-0 to HEAVY-AUG-CC-PV(Q+D)Z

  ==> Integral Setup <==

  ==> DiskDFJK: Density-Fitted J/K Matrices <==

    J tasked:                  Yes
    K tasked:                  Yes
    wK tasked:                  No
    OpenMP threads:              4
    Integrals threads:           4
    Memory [MiB]:              375
    Algorithm:                Disk
    Integral Cache:           NONE
    Schwarz Cutoff:          1E-12
    Fitting Condition:       1E-10

   => Auxiliary Basis Set <=

  Basis Set: (HEAVY-AUG-CC-PV(Q+D)Z AUX)
    Blend: HEAVY-AUG-CC-PVQZ-JKFIT
    Number of shells: 282
    Number of basis function: 1158
    Number of Cartesian functions: 1584
    Spherical Harmonics?: true
    Max angular momentum: 5

  Minimum eigenvalue in the overlap matrix is 1.0731410695E-06.
  Reciprocal condition number of the overlap matrix is 6.8696564608E-08.
    Using symmetric orthogonalization.

  ==> Pre-Iterations <==

  SCF Guess: Orbitals guess was supplied from a previous computation.

   -------------------------
    Irrep   Nso     Nmo    
   -------------------------
     A        660     660 
   -------------------------
    Total     660     660
   -------------------------

  ==> Iterations <==

                           Total Energy        Delta E     RMS |[F,P]|

   @DF-RHF iter   0:  -304.22025418036804   -3.04220e+02   4.49025e-03 
   @DF-RHF iter   1:  -304.73499309546617   -5.14739e-01   3.39666e-04 DIIS
   @DF-RHF iter   2:  -304.75115115907278   -1.61581e-02   1.55033e-04 DIIS
   @DF-RHF iter   3:  -304.75507183516692   -3.92068e-03   2.79026e-05 DIIS
   @DF-RHF iter   4:  -304.75534517411887   -2.73339e-04   7.95611e-06 DIIS
   @DF-RHF iter   5:  -304.75536638528376   -2.12112e-05   3.36804e-06 DIIS
   @DF-RHF iter   6:  -304.75536964250830   -3.25722e-06   8.32041e-07 DIIS
   @DF-RHF iter   7:  -304.75536992573245   -2.83224e-07   1.75337e-07 DIIS
   @DF-RHF iter   8:  -304.75536993955689   -1.38244e-08   4.58259e-08 DIIS
   @DF-RHF iter   9:  -304.75536994059308   -1.03620e-09   1.49115e-08 DIIS
   @DF-RHF iter  10:  -304.75536994068301   -8.99263e-11   3.66087e-09 DIIS
   @DF-RHF iter  11:  -304.75536994068932   -6.30962e-12   9.21098e-10 DIIS
   @DF-RHF iter  12:  -304.75536994069097   -1.64846e-12   2.67536e-10 DIIS
   @DF-RHF iter  13:  -304.75536994069250   -1.53477e-12   5.35215e-11 DIIS
  Energy and wave function converged.


  ==> Post-Iterations <==

    Orbital Energies [Eh]
    ---------------------

    Doubly Occupied:                                                      

       1A    -20.564281     2A    -20.564227     3A    -11.346868  
       4A    -11.346820     5A    -11.235087     6A    -11.234498  
       7A     -1.500685     8A     -1.295992     9A     -1.066693  
      10A     -0.989865    11A     -0.810541    12A     -0.787477  
      13A     -0.749043    14A     -0.676462    15A     -0.657272  
      16A     -0.645546    17A     -0.537639    18A     -0.525371  
      19A     -0.519439    20A     -0.511613    21A     -0.508894  
      22A     -0.460225    23A     -0.431546  

    Virtual:                                                              

      24A      0.041676    25A      0.042966    26A      0.050513  
      27A      0.062641    28A      0.063961    29A      0.079813  
      30A      0.080060    31A      0.083466    32A      0.101516  
      33A      0.110293    34A      0.111772    35A      0.112234  
      36A      0.139396    37A      0.151947    38A      0.166528  
      39A      0.171521    40A      0.178364    41A      0.178847  
      42A      0.188735    43A      0.188992    44A      0.199225  
      45A      0.207544    46A      0.226245    47A      0.227058  
      48A      0.230200    49A      0.258087    50A      0.261582  
      51A      0.270722    52A      0.271373    53A      0.272963  
      54A      0.287075    55A      0.288265    56A      0.291630  
      57A      0.301292    58A      0.316704    59A      0.319860  
      60A      0.325854    61A      0.333523    62A      0.338454  
      63A      0.356654    64A      0.358179    65A      0.370111  
      66A      0.381354    67A      0.388266    68A      0.390873  
      69A      0.391797    70A      0.392726    71A      0.399295  
      72A      0.399414    73A      0.413665    74A      0.420622  
      75A      0.421974    76A      0.440185    77A      0.452948  
      78A      0.457653    79A      0.465884    80A      0.495247  
      81A      0.517058    82A      0.518906    83A      0.523951  
      84A      0.528049    85A      0.550627    86A      0.572936  
      87A      0.575648    88A      0.586244    89A      0.590160  
      90A      0.598548    91A      0.600983    92A      0.614816  
      93A      0.629776    94A      0.642204    95A      0.656519  
      96A      0.659731    97A      0.686971    98A      0.690276  
      99A      0.697285   100A      0.704689   101A      0.716272  
     102A      0.721709   103A      0.735185   104A      0.744945  
     105A      0.759960   106A      0.766567   107A      0.790078  
     108A      0.791628   109A      0.794852   110A      0.796301  
     111A      0.828649   112A      0.832196   113A      0.833895  
     114A      0.850028   115A      0.860618   116A      0.876313  
     117A      0.885335   118A      0.898075   119A      0.920630  
     120A      0.939381   121A      0.948167   122A      0.960284  
     123A      0.960921   124A      0.987388   125A      1.002418  
     126A      1.010044   127A      1.012699   128A      1.017716  
     129A      1.034990   130A      1.035308   131A      1.047498  
     132A      1.060645   133A      1.071519   134A      1.074838  
     135A      1.097978   136A      1.114360   137A      1.129248  
     138A      1.140808   139A      1.154416   140A      1.160337  
     141A      1.160948   142A      1.166896   143A      1.167461  
     144A      1.177506   145A      1.191013   146A      1.198638  
     147A      1.209838   148A      1.222537   149A      1.230999  
     150A      1.235234   151A      1.238356   152A      1.240238  
     153A      1.246734   154A      1.276593   155A      1.278395  
     156A      1.289172   157A      1.289715   158A      1.306595  
     159A      1.315493   160A      1.329841   161A      1.371300  
     162A      1.373926   163A      1.410035   164A      1.410923  
     165A      1.436411   166A      1.442515   167A      1.459634  
     168A      1.469884   169A      1.476987   170A      1.487232  
     171A      1.490854   172A      1.509900   173A      1.525702  
     174A      1.534711   175A      1.545044   176A      1.595138  
     177A      1.595447   178A      1.620326   179A      1.623105  
     180A      1.626258   181A      1.626660   182A      1.646162  
     183A      1.684426   184A      1.686599   185A      1.701321  
     186A      1.724050   187A      1.727916   188A      1.734358  
     189A      1.754701   190A      1.777262   191A      1.779342  
     192A      1.814094   193A      1.866853   194A      1.875364  
     195A      1.887527   196A      1.898872   197A      1.909145  
     198A      1.928061   199A      1.960695   200A      1.968666  
     201A      1.998858   202A      2.000506   203A      2.017414  
     204A      2.022277   205A      2.026813   206A      2.029878  
     207A      2.035210   208A      2.038977   209A      2.045076  
     210A      2.106279   211A      2.115932   212A      2.126345  
     213A      2.142414   214A      2.145936   215A      2.173625  
     216A      2.189868   217A      2.190113   218A      2.212338  
     219A      2.255292   220A      2.261630   221A      2.270401  
     222A      2.296313   223A      2.301691   224A      2.309483  
     225A      2.339434   226A      2.342332   227A      2.362192  
     228A      2.364501   229A      2.366229   230A      2.377176  
     231A      2.390866   232A      2.400896   233A      2.407260  
     234A      2.423206   235A      2.442808   236A      2.448152  
     237A      2.460418   238A      2.487571   239A      2.492679  
     240A      2.518906   241A      2.527842   242A      2.536934  
     243A      2.547380   244A      2.561351   245A      2.590062  
     246A      2.594628   247A      2.622133   248A      2.634963  
     249A      2.635228   250A      2.648953   251A      2.666438  
     252A      2.683539   253A      2.701557   254A      2.719762  
     255A      2.734153   256A      2.735227   257A      2.754081  
     258A      2.766232   259A      2.766596   260A      2.802285  
     261A      2.807536   262A      2.807870   263A      2.835572  
     264A      2.862090   265A      2.870448   266A      2.923925  
     267A      2.941323   268A      2.945730   269A      2.970966  
     270A      2.977430   271A      2.989130   272A      2.993035  
     273A      3.010246   274A      3.033665   275A      3.043681  
     276A      3.051906   277A      3.078432   278A      3.083684  
     279A      3.084360   280A      3.106571   281A      3.111618  
     282A      3.137829   283A      3.148564   284A      3.156428  
     285A      3.174930   286A      3.190221   287A      3.229433  
     288A      3.249908   289A      3.260433   290A      3.270331  
     291A      3.291388   292A      3.297609   293A      3.322681  
     294A      3.364415   295A      3.368722   296A      3.400836  
     297A      3.403752   298A      3.406838   299A      3.434680  
     300A      3.457353   301A      3.465025   302A      3.481104  
     303A      3.503721   304A      3.523765   305A      3.537219  
     306A      3.554464   307A      3.574966   308A      3.599764  
     309A      3.614231   310A      3.619780   311A      3.641437  
     312A      3.664470   313A      3.694214   314A      3.706908  
     315A      3.716668   316A      3.749143   317A      3.754775  
     318A      3.757674   319A      3.810158   320A      3.836602  
     321A      3.846535   322A      3.847057   323A      3.876576  
     324A      3.908983   325A      3.910861   326A      3.921987  
     327A      3.951984   328A      3.965306   329A      3.984784  
     330A      4.043513   331A      4.048963   332A      4.051516  
     333A      4.063138   334A      4.085706   335A      4.100787  
     336A      4.121374   337A      4.139670   338A      4.158310  
     339A      4.173316   340A      4.204202   341A      4.206352  
     342A      4.220047   343A      4.243401   344A      4.250110  
     345A      4.276778   346A      4.296157   347A      4.317523  
     348A      4.337049   349A      4.340307   350A      4.365086  
     351A      4.408912   352A      4.435472   353A      4.446996  
     354A      4.457801   355A      4.470011   356A      4.490775  
     357A      4.500466   358A      4.513220   359A      4.525407  
     360A      4.542228   361A      4.571101   362A      4.598311  
     363A      4.637866   364A      4.662238   365A      4.676681  
     366A      4.698912   367A      4.700194   368A      4.708098  
     369A      4.719975   370A      4.747488   371A      4.758680  
     372A      4.763717   373A      4.788958   374A      4.831275  
     375A      4.835683   376A      4.836111   377A      4.848963  
     378A      4.860757   379A      4.913678   380A      4.944986  
     381A      4.988967   382A      5.007194   383A      5.010788  
     384A      5.035662   385A      5.062419   386A      5.124571  
     387A      5.172610   388A      5.175582   389A      5.186232  
     390A      5.245503   391A      5.255466   392A      5.258092  
     393A      5.285584   394A      5.295421   395A      5.311559  
     396A      5.348188   397A      5.368327   398A      5.391755  
     399A      5.424078   400A      5.503526   401A      5.525565  
     402A      5.555382   403A      5.596800   404A      5.637686  
     405A      5.660122   406A      5.661165   407A      5.677893  
     408A      5.794355   409A      5.837855   410A      5.839003  
     411A      5.844758   412A      5.910007   413A      5.977099  
     414A      6.039390   415A      6.108485   416A      6.148329  
     417A      6.192041   418A      6.220764   419A      6.234702  
     420A      6.242157   421A      6.297140   422A      6.340029  
     423A      6.344747   424A      6.348954   425A      6.372100  
     426A      6.399587   427A      6.422634   428A      6.464438  
     429A      6.490792   430A      6.496854   431A      6.514291  
     432A      6.526701   433A      6.539751   434A      6.583079  
     435A      6.587143   436A      6.619171   437A      6.642458  
     438A      6.648483   439A      6.656064   440A      6.690410  
     441A      6.702428   442A      6.705608   443A      6.717438  
     444A      6.755335   445A      6.774735   446A      6.787004  
     447A      6.816039   448A      6.821936   449A      6.856673  
     450A      6.896983   451A      6.909074   452A      6.920227  
     453A      6.923915   454A      6.924394   455A      6.947508  
     456A      6.980757   457A      6.995880   458A      7.014586  
     459A      7.040946   460A      7.096118   461A      7.107823  
     462A      7.111023   463A      7.138232   464A      7.160678  
     465A      7.180951   466A      7.195910   467A      7.208965  
     468A      7.224099   469A      7.225151   470A      7.255154  
     471A      7.280794   472A      7.312628   473A      7.360827  
     474A      7.369768   475A      7.372046   476A      7.420688  
     477A      7.440407   478A      7.442954   479A      7.478153  
     480A      7.541344   481A      7.547039   482A      7.602558  
     483A      7.606349   484A      7.618446   485A      7.642445  
     486A      7.722512   487A      7.733324   488A      7.751640  
     489A      7.756935   490A      7.785052   491A      7.818503  
     492A      7.841209   493A      7.848946   494A      7.861255  
     495A      7.925135   496A      7.951688   497A      7.954699  
     498A      7.989775   499A      7.999841   500A      8.023438  
     501A      8.026588   502A      8.049886   503A      8.094712  
     504A      8.117564   505A      8.154054   506A      8.157849  
     507A      8.199125   508A      8.207284   509A      8.329317  
     510A      8.337084   511A      8.342711   512A      8.355929  
     513A      8.389890   514A      8.422535   515A      8.426386  
     516A      8.485230   517A      8.509154   518A      8.511237  
     519A      8.530795   520A      8.556214   521A      8.568123  
     522A      8.594961   523A      8.611432   524A      8.616832  
     525A      8.656486   526A      8.697077   527A      8.712750  
     528A      8.721385   529A      8.767223   530A      8.816595  
     531A      8.832241   532A      8.841392   533A      8.844146  
     534A      8.847375   535A      8.891988   536A      8.902013  
     537A      8.929762   538A      8.942690   539A      8.958792  
     540A      9.010598   541A      9.017987   542A      9.030160  
     543A      9.038749   544A      9.049266   545A      9.067489  
     546A      9.086635   547A      9.111399   548A      9.119081  
     549A      9.173760   550A      9.180428   551A      9.191373  
     552A      9.237118   553A      9.253075   554A      9.314820  
     555A      9.345552   556A      9.353379   557A      9.357063  
     558A      9.368743   559A      9.400442   560A      9.453570  
     561A      9.504292   562A      9.516300   563A      9.528810  
     564A      9.558092   565A      9.652064   566A      9.661627  
     567A      9.728450   568A      9.761586   569A      9.774531  
     570A      9.798188   571A      9.835527   572A      9.898701  
     573A      9.925323   574A      9.933104   575A      9.962787  
     576A     10.072395   577A     10.115997   578A     10.234514  
     579A     10.243949   580A     10.257933   581A     10.294638  
     582A     10.420210   583A     10.481022   584A     10.503661  
     585A     10.516546   586A     10.589457   587A     10.627774  
     588A     10.649030   589A     10.783333   590A     10.792566  
     591A     10.823191   592A     10.827342   593A     10.970183  
     594A     11.005714   595A     11.059435   596A     11.084037  
     597A     11.097537   598A     11.107795   599A     11.146911  
     600A     11.152374   601A     11.177094   602A     11.220077  
     603A     11.235654   604A     11.258599   605A     11.351401  
     606A     11.387347   607A     11.457642   608A     11.466325  
     609A     11.512844   610A     11.514192   611A     11.526897  
     612A     11.557633   613A     11.635327   614A     11.657904  
     615A     11.744267   616A     11.829213   617A     11.848475  
     618A     11.884457   619A     11.908737   620A     11.927888  
     621A     12.220305   622A     12.278296   623A     12.317210  
     624A     12.400207   625A     12.664481   626A     12.677498  
     627A     12.822023   628A     12.909058   629A     12.949964  
     630A     13.058371   631A     13.097504   632A     13.114400  
     633A     13.196956   634A     13.237606   635A     13.268440  
     636A     13.357776   637A     13.390264   638A     13.401412  
     639A     13.426806   640A     13.532614   641A     13.535700  
     642A     13.555021   643A     13.742536   644A     13.751044  
     645A     13.819568   646A     13.820772   647A     13.867421  
     648A     13.932509   649A     14.007309   650A     14.018861  
     651A     14.164514   652A     14.172750   653A     14.730332  
     654A     14.927257   655A     27.318037   656A     27.905835  
     657A     28.053212   658A     28.608673   659A     44.849361  
     660A     45.764641  

    Final Occupation by Irrep:
              A 
    DOCC [    23 ]

  @DF-RHF Final Energy:  -304.75536994069250

   => Energetics <=

    Nuclear Repulsion Energy =            258.0740212860803240
    One-Electron Energy =                -927.7266144498697713
    Two-Electron Energy =                 364.8972232230969439
    Total Energy =                       -304.7553699406925034

Computation Completed


Properties will be evaluated at   0.000000,   0.000000,   0.000000 [a0]

Properties computed using the SCF density matrix

  Nuclear Dipole Moment: [e a0]
     X:    -4.4778      Y:    -0.0002      Z:    -0.0003

  Electronic Dipole Moment: [e a0]
     X:     3.7420      Y:    -0.0001      Z:     0.0005

  Dipole Moment: [e a0]
     X:    -0.7358      Y:    -0.0003      Z:     0.0002     Total:     0.7358

  Dipole Moment: [D]
     X:    -1.8703      Y:    -0.0008      Z:     0.0005     Total:     1.8703


*** tstop() called on n077 at Fri Jun  5 11:39:16 2020
Module time:
	user time   =     152.63 seconds =       2.54 minutes
	system time =       5.73 seconds =       0.10 minutes
	total time  =         41 seconds =       0.68 minutes
Total time:
	user time   =     152.63 seconds =       2.54 minutes
	system time =       5.73 seconds =       0.10 minutes
	total time  =         41 seconds =       0.68 minutes

*** tstart() called on n077
*** at Fri Jun  5 11:39:16 2020


  //>>>>>>>>>>>>>>>>>>>>>>>>>>>>>>>>>>>//
  //               DFMP2               //
  //<<<<<<<<<<<<<<<<<<<<<<<<<<<<<<<<<<<//

   => Loading Basis Set <=

    Name: (HEAVY-AUG-CC-PV(Q+D)Z AUX)
    Role: RIFIT
    Keyword: DF_BASIS_MP2
    atoms 1, 4, 7, 10     entry C          line   180 file /opt/psi/4/master/share/psi4/basis/heavy-aug-cc-pvqz-ri.gbs 
    atoms 2-3, 5-6, 8, 11 entry H          line    44 file /opt/psi/4/master/share/psi4/basis/heavy-aug-cc-pvqz-ri.gbs 
    atoms 9, 12           entry O          line   328 file /opt/psi/4/master/share/psi4/basis/heavy-aug-cc-pvqz-ri.gbs 

	 --------------------------------------------------------
	                          DF-MP2                         
	      2nd-Order Density-Fitted Moller-Plesset Theory     
	              RMP2 Wavefunction,   4 Threads             
	                                                         
	        Rob Parrish, Justin Turney, Andy Simmonett,      
	           Ed Hohenstein, and C. David Sherrill          
	 --------------------------------------------------------

   => Auxiliary Basis Set <=

  Basis Set: (HEAVY-AUG-CC-PV(Q+D)Z AUX)
    Blend: HEAVY-AUG-CC-PVQZ-RI
    Number of shells: 306
    Number of basis function: 1338
    Number of Cartesian functions: 1842
    Spherical Harmonics?: true
    Max angular momentum: 5

	 --------------------------------------------------------
	                 NBF =   660, NAUX =  1338
	 --------------------------------------------------------
	   CLASS    FOCC     OCC    AOCC    AVIR     VIR    FVIR
	   PAIRS       6      23      17     637     637       0
	 --------------------------------------------------------

	-----------------------------------------------------------
	 ==================> DF-MP2 Energies <==================== 
	-----------------------------------------------------------
	 Reference Energy          =    -304.7553699406925034 [Eh]
	 Singles Energy            =      -0.0000000000000000 [Eh]
	 Same-Spin Energy          =      -0.2937704547883541 [Eh]
	 Opposite-Spin Energy      =      -0.9223711523171153 [Eh]
	 Correlation Energy        =      -1.2161416071054694 [Eh]
	 Total Energy              =    -305.9715115477979452 [Eh]
	-----------------------------------------------------------
	 ================> DF-SCS-MP2 Energies <================== 
	-----------------------------------------------------------
	 SCS Same-Spin Scale       =       0.3333333333333333 [-]
	 SCS Opposite-Spin Scale   =       1.2000000000000000 [-]
	 SCS Same-Spin Energy      =      -0.0979234849294514 [Eh]
	 SCS Opposite-Spin Energy  =      -1.1068453827805382 [Eh]
	 SCS Correlation Energy    =      -1.2047688677099897 [Eh]
	 SCS Total Energy          =    -305.9601388084025189 [Eh]
	-----------------------------------------------------------


*** tstop() called on n077 at Fri Jun  5 11:39:23 2020
Module time:
	user time   =      28.04 seconds =       0.47 minutes
	system time =       0.24 seconds =       0.00 minutes
	total time  =          7 seconds =       0.12 minutes
Total time:
	user time   =     180.68 seconds =       3.01 minutes
	system time =       5.97 seconds =       0.10 minutes
	total time  =         48 seconds =       0.80 minutes

========================OPTAVC-XTPL==========================

MP2/QZ correlation energy -1.2161416071054694
SCF/QZ reference energy -304.7553699406925


=============================================================

Scratch directory: /tmp/

Scratch directory: /tmp/
    SCF Algorithm Type (re)set to DF.

*** tstart() called on n077
*** at Fri Jun  5 11:39:24 2020


  //>>>>>>>>>>>>>>>>>>>>>>>>>>>>>>>>>>>//
  //      Guess SCF, pcseg-0 Basis     //
  //<<<<<<<<<<<<<<<<<<<<<<<<<<<<<<<<<<<//

   => Loading Basis Set <=

    Name: PCSEG-0
    Role: ORBITAL
    Keyword: BASIS
    atoms 1, 4, 7, 10     entry C          line    71 file /opt/psi/4/master/share/psi4/basis/pcseg-0.gbs 
    atoms 2-3, 5-6, 8, 11 entry H          line    13 file /opt/psi/4/master/share/psi4/basis/pcseg-0.gbs 
    atoms 9, 12           entry O          line   103 file /opt/psi/4/master/share/psi4/basis/pcseg-0.gbs 


         ---------------------------------------------------------
                           SCF Castup computation                  
         ---------------------------------------------------------
                                   SCF
               by Justin Turney, Rob Parrish, Andy Simmonett
                          and Daniel G. A. Smith
                              RHF Reference
                        4 Threads,    500 MiB Core
         ---------------------------------------------------------

  ==> Geometry <==

    Molecular point group: c1
    Full point group: C1

    Geometry (in Angstrom), charge = 0, multiplicity = 1:

       Center              X                  Y                   Z               Mass       
    ------------   -----------------  -----------------  -----------------  -----------------
         C           -1.169969463277    -0.774075714550    -0.000125580240    12.000000000000
         H           -1.617202611977    -1.211544387650    -0.890367767540     1.007825032230
         H           -1.614700581328    -1.211655585612     0.889921818307     1.007825032230
         C           -1.170096381153     0.773958242062     0.000006866093    12.000000000000
         H           -1.617467231957     1.211370812840     0.890207301405     1.007825032230
         H           -1.617361245074     1.211570975718    -0.890147846345     1.007825032230
         C            0.356730207121     0.920119392468     0.000110371694    12.000000000000
         H            0.841173443759     1.891585461591     0.000241032475     1.007825032230
         O            0.760941871803     0.000139178841    -1.017863679059    15.994914619570
         C            0.356788413423    -0.920077115054    -0.000079200636    12.000000000000
         H            0.841293718380    -1.891512210079    -0.000146059411     1.007825032230
         O            0.760808559364    -0.000071112133     1.017947725731    15.994914619570

  Running in c1 symmetry.

  Rotational constants: A =      0.20029  B =      0.16409  C =      0.14759 [cm^-1]
  Rotational constants: A =   6004.58239  B =   4919.34744  C =   4424.67170 [MHz]
  Nuclear repulsion =  258.074021286080324

  Charge       = 0
  Multiplicity = 1
  Electrons    = 46
  Nalpha       = 23
  Nbeta        = 23

  ==> Algorithm <==

  SCF Algorithm Type is DF.
  DIIS enabled.
  MOM disabled.
  Fractional occupation disabled.
  Guess Type is SAD.
  Energy threshold   = 1.00e-10
  Density threshold  = 1.00e-10
  Integral threshold = 0.00e+00

  ==> Primary Basis <==

  Basis Set: PCSEG-0
    Blend: PCSEG-0
    Number of shells: 42
    Number of basis function: 66
    Number of Cartesian functions: 66
    Spherical Harmonics?: true
    Max angular momentum: 1

   => Loading Basis Set <=

    Name: (PCSEG-0 AUX)
    Role: JKFIT
    Keyword: DF_BASIS_SCF
    atoms 1, 4, 7, 10     entry C          line   198 file /opt/psi/4/master/share/psi4/basis/def2-universal-jkfit.gbs 
    atoms 2-3, 5-6, 8, 11 entry H          line    18 file /opt/psi/4/master/share/psi4/basis/def2-universal-jkfit.gbs 
    atoms 9, 12           entry O          line   318 file /opt/psi/4/master/share/psi4/basis/def2-universal-jkfit.gbs 

  ==> Integral Setup <==

  ==> DiskDFJK: Density-Fitted J/K Matrices <==

    J tasked:                  Yes
    K tasked:                  Yes
    wK tasked:                  No
    OpenMP threads:              4
    Integrals threads:           4
    Memory [MiB]:              375
    Algorithm:                Core
    Integral Cache:           NONE
    Schwarz Cutoff:          1E-12
    Fitting Condition:       1E-10

   => Auxiliary Basis Set <=

  Basis Set: (PCSEG-0 AUX)
    Blend: DEF2-UNIVERSAL-JKFIT
    Number of shells: 186
    Number of basis function: 562
    Number of Cartesian functions: 662
    Spherical Harmonics?: true
    Max angular momentum: 4

  Minimum eigenvalue in the overlap matrix is 1.2753376943E-03.
  Reciprocal condition number of the overlap matrix is 2.0992580521E-04.
    Using symmetric orthogonalization.

  ==> Pre-Iterations <==

  SCF Guess: Superposition of Atomic Densities via on-the-fly atomic UHF (no occupation information).

   -------------------------
    Irrep   Nso     Nmo    
   -------------------------
     A         66      66 
   -------------------------
    Total      66      66
   -------------------------

  ==> Iterations <==

                           Total Energy        Delta E     RMS |[F,P]|

   @DF-RHF iter SAD:  -303.78414496366059   -3.03784e+02   0.00000e+00 
   @DF-RHF iter   1:  -303.56518590520920    2.18959e-01   7.21001e-03 DIIS
   @DF-RHF iter   2:  -303.66410187220578   -9.89160e-02   3.86668e-03 DIIS
   @DF-RHF iter   3:  -303.68845208526545   -2.43502e-02   6.09813e-04 DIIS
   @DF-RHF iter   4:  -303.68959204404320   -1.13996e-03   1.89662e-04 DIIS
   @DF-RHF iter   5:  -303.68968043332779   -8.83893e-05   4.01090e-05 DIIS
   @DF-RHF iter   6:  -303.68968755077606   -7.11745e-06   8.08775e-06 DIIS
   @DF-RHF iter   7:  -303.68968792218703   -3.71411e-07   1.66896e-06 DIIS
   @DF-RHF iter   8:  -303.68968793525323   -1.30662e-08   5.23016e-07 DIIS
   @DF-RHF iter   9:  -303.68968793658348   -1.33025e-09   1.00001e-07 DIIS
   @DF-RHF iter  10:  -303.68968793664669   -6.32099e-11   1.69094e-08 DIIS
   @DF-RHF iter  11:  -303.68968793664851   -1.81899e-12   2.52752e-09 DIIS
   @DF-RHF iter  12:  -303.68968793664862   -1.13687e-13   5.86043e-10 DIIS
   @DF-RHF iter  13:  -303.68968793664845    1.70530e-13   2.44591e-10 DIIS
   @DF-RHF iter  14:  -303.68968793664880   -3.41061e-13   4.97035e-11 DIIS
  Energy and wave function converged.


  ==> Post-Iterations <==

    Orbital Energies [Eh]
    ---------------------

    Doubly Occupied:                                                      

       1A    -20.583836     2A    -20.583758     3A    -11.368386  
       4A    -11.368351     5A    -11.254686     6A    -11.254263  
       7A     -1.548720     8A     -1.317303     9A     -1.091272  
      10A     -1.011065    11A     -0.822345    12A     -0.787948  
      13A     -0.770580    14A     -0.684651    15A     -0.664468  
      16A     -0.661844    17A     -0.555060    18A     -0.534511  
      19A     -0.528195    20A     -0.525224    21A     -0.518463  
      22A     -0.467586    23A     -0.441352  

    Virtual:                                                              

      24A      0.203704    25A      0.232934    26A      0.236674  
      27A      0.242145    28A      0.254647    29A      0.267698  
      30A      0.316092    31A      0.351963    32A      0.354582  
      33A      0.388108    34A      0.408858    35A      0.474162  
      36A      0.575702    37A      0.796139    38A      0.799743  
      39A      0.821220    40A      0.924831    41A      0.934099  
      42A      0.944630    43A      0.951821    44A      1.004207  
      45A      1.005558    46A      1.033496    47A      1.061434  
      48A      1.071808    49A      1.136253    50A      1.149838  
      51A      1.171683    52A      1.173081    53A      1.210817  
      54A      1.239365    55A      1.422502    56A      1.454500  
      57A      1.484916    58A      1.525926    59A      1.692265  
      60A      1.710143    61A      1.929896    62A      1.952669  
      63A      2.144768    64A      2.303181    65A      2.379105  
      66A      2.449493  

    Final Occupation by Irrep:
              A 
    DOCC [    23 ]

  @DF-RHF Final Energy:  -303.68968793664880

   => Energetics <=

    Nuclear Repulsion Energy =            258.0740212860803240
    One-Electron Energy =                -924.8396904888195422
    Two-Electron Energy =                 363.0759812660904231
    Total Energy =                       -303.6896879366487951

Computation Completed

  //>>>>>>>>>>>>>>>>>>>>>>>>>>>>>>>>>>>//
  //                SCF                //
  //<<<<<<<<<<<<<<<<<<<<<<<<<<<<<<<<<<<//

   => Loading Basis Set <=

    Name: HEAVY-AUG-CC-PV(T+D)Z
    Role: ORBITAL
    Keyword: BASIS
    atoms 1, 4, 7, 10     entry C          line   273 file /opt/psi/4/master/share/psi4/basis/heavy-aug-cc-pv_tpd_z.gbs 
    atoms 2-3, 5-6, 8, 11 entry H          line    86 file /opt/psi/4/master/share/psi4/basis/heavy-aug-cc-pv_tpd_z.gbs 
    atoms 9, 12           entry O          line   365 file /opt/psi/4/master/share/psi4/basis/heavy-aug-cc-pv_tpd_z.gbs 


         ---------------------------------------------------------
                                   SCF
               by Justin Turney, Rob Parrish, Andy Simmonett
                          and Daniel G. A. Smith
                              RHF Reference
                        4 Threads,    500 MiB Core
         ---------------------------------------------------------

  ==> Geometry <==

    Molecular point group: c1
    Full point group: C1

    Geometry (in Angstrom), charge = 0, multiplicity = 1:

       Center              X                  Y                   Z               Mass       
    ------------   -----------------  -----------------  -----------------  -----------------
         C           -1.169969463277    -0.774075714550    -0.000125580240    12.000000000000
         H           -1.617202611977    -1.211544387650    -0.890367767540     1.007825032230
         H           -1.614700581328    -1.211655585612     0.889921818307     1.007825032230
         C           -1.170096381153     0.773958242062     0.000006866093    12.000000000000
         H           -1.617467231957     1.211370812840     0.890207301405     1.007825032230
         H           -1.617361245074     1.211570975718    -0.890147846345     1.007825032230
         C            0.356730207121     0.920119392468     0.000110371694    12.000000000000
         H            0.841173443759     1.891585461591     0.000241032475     1.007825032230
         O            0.760941871803     0.000139178841    -1.017863679059    15.994914619570
         C            0.356788413423    -0.920077115054    -0.000079200636    12.000000000000
         H            0.841293718380    -1.891512210079    -0.000146059411     1.007825032230
         O            0.760808559364    -0.000071112133     1.017947725731    15.994914619570

  Running in c1 symmetry.

  Rotational constants: A =      0.20029  B =      0.16409  C =      0.14759 [cm^-1]
  Rotational constants: A =   6004.58239  B =   4919.34744  C =   4424.67170 [MHz]
  Nuclear repulsion =  258.074021286080324

  Charge       = 0
  Multiplicity = 1
  Electrons    = 46
  Nalpha       = 23
  Nbeta        = 23

  ==> Algorithm <==

  SCF Algorithm Type is DF.
  DIIS enabled.
  MOM disabled.
  Fractional occupation disabled.
  Guess Type is SAD.
  Energy threshold   = 1.00e-10
  Density threshold  = 1.00e-10
  Integral threshold = 0.00e+00

  ==> Primary Basis <==

  Basis Set: HEAVY-AUG-CC-PV(T+D)Z
    Blend: HEAVY-AUG-CC-PV(T+D)Z
    Number of shells: 120
    Number of basis function: 360
    Number of Cartesian functions: 420
    Spherical Harmonics?: true
    Max angular momentum: 3

   => Loading Basis Set <=

    Name: (HEAVY-AUG-CC-PV(T+D)Z AUX)
    Role: JKFIT
    Keyword: DF_BASIS_SCF
    atoms 1, 4, 7, 10     entry C          line   200 file /opt/psi/4/master/share/psi4/basis/heavy-aug-cc-pvtz-jkfit.gbs 
    atoms 2-3, 5-6, 8, 11 entry H          line   116 file /opt/psi/4/master/share/psi4/basis/heavy-aug-cc-pvtz-jkfit.gbs 
    atoms 9, 12           entry O          line   324 file /opt/psi/4/master/share/psi4/basis/heavy-aug-cc-pvtz-jkfit.gbs 


  Computing basis projection from PCSEG-0 to HEAVY-AUG-CC-PV(T+D)Z

  ==> Integral Setup <==

  ==> DiskDFJK: Density-Fitted J/K Matrices <==

    J tasked:                  Yes
    K tasked:                  Yes
    wK tasked:                  No
    OpenMP threads:              4
    Integrals threads:           4
    Memory [MiB]:              375
    Algorithm:                Disk
    Integral Cache:           NONE
    Schwarz Cutoff:          1E-12
    Fitting Condition:       1E-10

   => Auxiliary Basis Set <=

  Basis Set: (HEAVY-AUG-CC-PV(T+D)Z AUX)
    Blend: HEAVY-AUG-CC-PVTZ-JKFIT
    Number of shells: 240
    Number of basis function: 804
    Number of Cartesian functions: 996
    Spherical Harmonics?: true
    Max angular momentum: 4

  Minimum eigenvalue in the overlap matrix is 5.4661508722E-06.
  Reciprocal condition number of the overlap matrix is 3.9886556367E-07.
    Using symmetric orthogonalization.

  ==> Pre-Iterations <==

  SCF Guess: Orbitals guess was supplied from a previous computation.

   -------------------------
    Irrep   Nso     Nmo    
   -------------------------
     A        360     360 
   -------------------------
    Total     360     360
   -------------------------

  ==> Iterations <==

                           Total Energy        Delta E     RMS |[F,P]|

   @DF-RHF iter   0:  -304.36015112266142   -3.04360e+02   4.19538e-03 
   @DF-RHF iter   1:  -304.71758117439299   -3.57430e-01   5.78106e-04 DIIS
   @DF-RHF iter   2:  -304.73286950379156   -1.52883e-02   2.73856e-04 DIIS
   @DF-RHF iter   3:  -304.73659990328377   -3.73040e-03   4.82198e-05 DIIS
   @DF-RHF iter   4:  -304.73686001393196   -2.60111e-04   1.47346e-05 DIIS
   @DF-RHF iter   5:  -304.73687971360192   -1.96997e-05   6.03024e-06 DIIS
   @DF-RHF iter   6:  -304.73688314765405   -3.43405e-06   1.40496e-06 DIIS
   @DF-RHF iter   7:  -304.73688339272275   -2.45069e-07   3.05030e-07 DIIS
   @DF-RHF iter   8:  -304.73688340575734   -1.30346e-08   8.03701e-08 DIIS
   @DF-RHF iter   9:  -304.73688340665927   -9.01935e-10   2.56441e-08 DIIS
   @DF-RHF iter  10:  -304.73688340674448   -8.52083e-11   6.19530e-09 DIIS
   @DF-RHF iter  11:  -304.73688340675102   -6.53699e-12   1.58550e-09 DIIS
   @DF-RHF iter  12:  -304.73688340675119   -1.70530e-13   4.55055e-10 DIIS
   @DF-RHF iter  13:  -304.73688340675147   -2.84217e-13   8.99696e-11 DIIS
  Energy and wave function converged.


  ==> Post-Iterations <==

    Orbital Energies [Eh]
    ---------------------

    Doubly Occupied:                                                      

       1A    -20.567238     2A    -20.567184     3A    -11.347978  
       4A    -11.347931     5A    -11.236166     6A    -11.235579  
       7A     -1.501500     8A     -1.296792     9A     -1.066939  
      10A     -0.990149    11A     -0.810635    12A     -0.787632  
      13A     -0.749002    14A     -0.676362    15A     -0.657297  
      16A     -0.645398    17A     -0.537567    18A     -0.525217  
      19A     -0.519307    20A     -0.511536    21A     -0.508694  
      22A     -0.459961    23A     -0.431346  

    Virtual:                                                              

      24A      0.050443    25A      0.051303    26A      0.059468  
      27A      0.072113    28A      0.073460    29A      0.092414  
      30A      0.093434    31A      0.096776    32A      0.116630  
      33A      0.126409    34A      0.127466    35A      0.130110  
      36A      0.162132    37A      0.176377    38A      0.195514  
      39A      0.204211    40A      0.206627    41A      0.214141  
      42A      0.220967    43A      0.228186    44A      0.233694  
      45A      0.249480    46A      0.268181    47A      0.268956  
      48A      0.276979    49A      0.295953    50A      0.302223  
      51A      0.315617    52A      0.332145    53A      0.336046  
      54A      0.342719    55A      0.348392    56A      0.356987  
      57A      0.357133    58A      0.362767    59A      0.376045  
      60A      0.398601    61A      0.404082    62A      0.412792  
      63A      0.421500    64A      0.433715    65A      0.447045  
      66A      0.459427    67A      0.469204    68A      0.486598  
      69A      0.493150    70A      0.508574    71A      0.512570  
      72A      0.516730    73A      0.520734    74A      0.527727  
      75A      0.529257    76A      0.543524    77A      0.546052  
      78A      0.580580    79A      0.595844    80A      0.608227  
      81A      0.612127    82A      0.624832    83A      0.654911  
      84A      0.657289    85A      0.672131    86A      0.722729  
      87A      0.737438    88A      0.748498    89A      0.754171  
      90A      0.771596    91A      0.781576    92A      0.793724  
      93A      0.798303    94A      0.817411    95A      0.820110  
      96A      0.830042    97A      0.843444    98A      0.878397  
      99A      0.892174   100A      0.930756   101A      0.930927  
     102A      0.940274   103A      0.946396   104A      0.969923  
     105A      0.988523   106A      1.000181   107A      1.031675  
     108A      1.037714   109A      1.039043   110A      1.061970  
     111A      1.080482   112A      1.096354   113A      1.116012  
     114A      1.123253   115A      1.139014   116A      1.161614  
     117A      1.189207   118A      1.225343   119A      1.249034  
     120A      1.252506   121A      1.262814   122A      1.283210  
     123A      1.323003   124A      1.330809   125A      1.339083  
     126A      1.353513   127A      1.375024   128A      1.382752  
     129A      1.398483   130A      1.404188   131A      1.412844  
     132A      1.448323   133A      1.448718   134A      1.460249  
     135A      1.482113   136A      1.498102   137A      1.506650  
     138A      1.527523   139A      1.547212   140A      1.559627  
     141A      1.583247   142A      1.586016   143A      1.588772  
     144A      1.589957   145A      1.601705   146A      1.656189  
     147A      1.660772   148A      1.670561   149A      1.676613  
     150A      1.684936   151A      1.700281   152A      1.707949  
     153A      1.715516   154A      1.732225   155A      1.736931  
     156A      1.750118   157A      1.752654   158A      1.791844  
     159A      1.802675   160A      1.808504   161A      1.824282  
     162A      1.904040   163A      1.905582   164A      1.931486  
     165A      1.945268   166A      1.948921   167A      1.985312  
     168A      1.993476   169A      2.003910   170A      2.007614  
     171A      2.028164   172A      2.051367   173A      2.055032  
     174A      2.060799   175A      2.150918   176A      2.153470  
     177A      2.214171   178A      2.251825   179A      2.301725  
     180A      2.334822   181A      2.393165   182A      2.403366  
     183A      2.424093   184A      2.441796   185A      2.452458  
     186A      2.480940   187A      2.508010   188A      2.511618  
     189A      2.545091   190A      2.582120   191A      2.632011  
     192A      2.646534   193A      2.682337   194A      2.693496  
     195A      2.725292   196A      2.771470   197A      2.799368  
     198A      2.882201   199A      2.883022   200A      2.895298  
     201A      2.914418   202A      2.920854   203A      2.958465  
     204A      2.966162   205A      2.969510   206A      3.081288  
     207A      3.099707   208A      3.119282   209A      3.132143  
     210A      3.186037   211A      3.188657   212A      3.212294  
     213A      3.227219   214A      3.243230   215A      3.267056  
     216A      3.312237   217A      3.339233   218A      3.412631  
     219A      3.416099   220A      3.417880   221A      3.440140  
     222A      3.442739   223A      3.480720   224A      3.486620  
     225A      3.504104   226A      3.524212   227A      3.539490  
     228A      3.607224   229A      3.629392   230A      3.639763  
     231A      3.671433   232A      3.685869   233A      3.700552  
     234A      3.710882   235A      3.729897   236A      3.736120  
     237A      3.751866   238A      3.821155   239A      3.837596  
     240A      3.844709   241A      3.867701   242A      3.885631  
     243A      3.933677   244A      3.949745   245A      3.966293  
     246A      3.966618   247A      3.969811   248A      4.005369  
     249A      4.025798   250A      4.050077   251A      4.056428  
     252A      4.080517   253A      4.107556   254A      4.114368  
     255A      4.148523   256A      4.167991   257A      4.176360  
     258A      4.185473   259A      4.191676   260A      4.214814  
     261A      4.244765   262A      4.253183   263A      4.260069  
     264A      4.268601   265A      4.274081   266A      4.318306  
     267A      4.346209   268A      4.367039   269A      4.430220  
     270A      4.467160   271A      4.484905   272A      4.486671  
     273A      4.500199   274A      4.516529   275A      4.532428  
     276A      4.555086   277A      4.584663   278A      4.639720  
     279A      4.691326   280A      4.693738   281A      4.703948  
     282A      4.708533   283A      4.735018   284A      4.745447  
     285A      4.758839   286A      4.809126   287A      4.821273  
     288A      4.821657   289A      4.840812   290A      4.889149  
     291A      4.908047   292A      4.959257   293A      4.966914  
     294A      4.968433   295A      5.098010   296A      5.120310  
     297A      5.125621   298A      5.194766   299A      5.200833  
     300A      5.241205   301A      5.273599   302A      5.290540  
     303A      5.398536   304A      5.425009   305A      5.437343  
     306A      5.467384   307A      5.477517   308A      5.584201  
     309A      5.584663   310A      5.606882   311A      5.655505  
     312A      5.705071   313A      5.711464   314A      5.730641  
     315A      5.861824   316A      5.868198   317A      5.900714  
     318A      5.938160   319A      6.062278   320A      6.130433  
     321A      6.153250   322A      6.207920   323A      6.262048  
     324A      6.289048   325A      6.301828   326A      6.361216  
     327A      6.386097   328A      6.497974   329A      6.563450  
     330A      6.901425   331A      6.906020   332A      6.955156  
     333A      6.970942   334A      6.997741   335A      7.032935  
     336A      7.111403   337A      7.141345   338A      7.179844  
     339A      7.207035   340A      7.245627   341A      7.254754  
     342A      7.404428   343A      7.507564   344A      7.599782  
     345A      7.615185   346A      7.660030   347A      7.755762  
     348A      7.811239   349A      7.825168   350A      7.924500  
     351A      8.059725   352A      8.210679   353A      8.213670  
     354A      8.233735   355A     14.280279   356A     15.468075  
     357A     15.712303   358A     15.958781   359A     17.528826  
     360A     18.821533  

    Final Occupation by Irrep:
              A 
    DOCC [    23 ]

  @DF-RHF Final Energy:  -304.73688340675147

   => Energetics <=

    Nuclear Repulsion Energy =            258.0740212860803240
    One-Electron Energy =                -927.6669897871674948
    Two-Electron Energy =                 364.8560850943356968
    Total Energy =                       -304.7368834067514740

Computation Completed


Properties will be evaluated at   0.000000,   0.000000,   0.000000 [a0]

Properties computed using the SCF density matrix

  Nuclear Dipole Moment: [e a0]
     X:    -4.4778      Y:    -0.0002      Z:    -0.0003

  Electronic Dipole Moment: [e a0]
     X:     3.7416      Y:    -0.0001      Z:     0.0005

  Dipole Moment: [e a0]
     X:    -0.7362      Y:    -0.0003      Z:     0.0002     Total:     0.7362

  Dipole Moment: [D]
     X:    -1.8713      Y:    -0.0008      Z:     0.0005     Total:     1.8713


*** tstop() called on n077 at Fri Jun  5 11:39:34 2020
Module time:
	user time   =      35.30 seconds =       0.59 minutes
	system time =       1.92 seconds =       0.03 minutes
	total time  =         10 seconds =       0.17 minutes
Total time:
	user time   =     216.46 seconds =       3.61 minutes
	system time =       8.05 seconds =       0.13 minutes
	total time  =         59 seconds =       0.98 minutes

*** tstart() called on n077
*** at Fri Jun  5 11:39:34 2020


  //>>>>>>>>>>>>>>>>>>>>>>>>>>>>>>>>>>>//
  //               DFMP2               //
  //<<<<<<<<<<<<<<<<<<<<<<<<<<<<<<<<<<<//

   => Loading Basis Set <=

    Name: (HEAVY-AUG-CC-PV(T+D)Z AUX)
    Role: RIFIT
    Keyword: DF_BASIS_MP2
    atoms 1, 4, 7, 10     entry C          line   148 file /opt/psi/4/master/share/psi4/basis/heavy-aug-cc-pvtz-ri.gbs 
    atoms 2-3, 5-6, 8, 11 entry H          line    44 file /opt/psi/4/master/share/psi4/basis/heavy-aug-cc-pvtz-ri.gbs 
    atoms 9, 12           entry O          line   264 file /opt/psi/4/master/share/psi4/basis/heavy-aug-cc-pvtz-ri.gbs 

	 --------------------------------------------------------
	                          DF-MP2                         
	      2nd-Order Density-Fitted Moller-Plesset Theory     
	              RMP2 Wavefunction,   4 Threads             
	                                                         
	        Rob Parrish, Justin Turney, Andy Simmonett,      
	           Ed Hohenstein, and C. David Sherrill          
	 --------------------------------------------------------

   => Auxiliary Basis Set <=

  Basis Set: (HEAVY-AUG-CC-PV(T+D)Z AUX)
    Blend: HEAVY-AUG-CC-PVTZ-RI
    Number of shells: 228
    Number of basis function: 816
    Number of Cartesian functions: 1026
    Spherical Harmonics?: true
    Max angular momentum: 4

	 --------------------------------------------------------
	                 NBF =   360, NAUX =   816
	 --------------------------------------------------------
	   CLASS    FOCC     OCC    AOCC    AVIR     VIR    FVIR
	   PAIRS       6      23      17     337     337       0
	 --------------------------------------------------------

	-----------------------------------------------------------
	 ==================> DF-MP2 Energies <==================== 
	-----------------------------------------------------------
	 Reference Energy          =    -304.7368834067514740 [Eh]
	 Singles Energy            =      -0.0000000000000000 [Eh]
	 Same-Spin Energy          =      -0.2850944893668061 [Eh]
	 Opposite-Spin Energy      =      -0.8617569425089591 [Eh]
	 Correlation Energy        =      -1.1468514318757652 [Eh]
	 Total Energy              =    -305.8837348386272197 [Eh]
	-----------------------------------------------------------
	 ================> DF-SCS-MP2 Energies <================== 
	-----------------------------------------------------------
	 SCS Same-Spin Scale       =       0.3333333333333333 [-]
	 SCS Opposite-Spin Scale   =       1.2000000000000000 [-]
	 SCS Same-Spin Energy      =      -0.0950314964556020 [Eh]
	 SCS Opposite-Spin Energy  =      -1.0341083310107508 [Eh]
	 SCS Correlation Energy    =      -1.1291398274663529 [Eh]
	 SCS Total Energy          =    -305.8660232342178347 [Eh]
	-----------------------------------------------------------


*** tstop() called on n077 at Fri Jun  5 11:39:35 2020
Module time:
	user time   =       6.97 seconds =       0.12 minutes
	system time =       0.08 seconds =       0.00 minutes
	total time  =          1 seconds =       0.02 minutes
Total time:
	user time   =     223.44 seconds =       3.72 minutes
	system time =       8.13 seconds =       0.14 minutes
	total time  =         60 seconds =       1.00 minutes

========================OPTAVC-XTPL==========================

MP2/TZ correlation energy -1.1468514318757652

=============================================================

    Psi4 stopped on: Friday, 05 June 2020 11:39AM
    Psi4 wall time for execution: 0:01:00.47

*** Psi4 exiting successfully. Buy a developer a beer!
