
 Primary working directories    : /tmp/320938.604.gen6.q
 Secondary working directories  : /tmp/320938.604.gen6.q
 Wavefunction directory         : /home/vulcan/mel64643/wfu/
 Main file repository           : /tmp/320938.604.gen6.q/

 ARCHNAME  : Linux/x86_64
 FC        : /opt/intel/compilers_and_libraries_2016.1.150/linux/bin/intel64/ifort
 FCVERSION : 16.0.1
 BLASLIB   : -mkl
 id        : ccgc

 Nodes     nprocs
 n083         3
 Number of processes for MPI-2 version of Molpro:   nprocs(total)=    4   nprocs(compute)=    3   nprocs(helper)=    1
 ga_uses_ma=false, calling ma_init with nominal heap.
 GA-space will be limited to   8.0 MW (determined by -G option)

 Using customized tuning parameters: mindgm=10; mindgv=16; mindgc=4; mindgr=1; noblas=0; mincuda=1000; minvec=7
 default implementation of scratch files=sf  

 ***,Frequencies for min3
 memory,1000,m
 gthresh,energy=1.0d-10,orbital=1.0d-10,oneint=1.0d-16,twoint=1.0d-16,optgrad=1.0d-6,compress=1.0d-13
 geomtyp=xyz
 
  geometry = {
  12
  arbitrary comment
     C    1.776964391707    0.711398808326   -0.047331391796
     C    0.491811976407   -0.059992870174   -0.196493901896
     C    0.450332819107   -1.536294019674    0.101417522804
     O   -0.560767745493    0.727234937526    0.254453964104
     O   -1.837840335593    0.092269037726   -0.120531795196
     H    2.585373063107    0.211465914126   -0.611440883996
     H    1.660426393907    1.742887987326   -0.426532369096
     H    2.095123485707    0.776023824170    1.017767795507
     H   -0.505151424472   -1.983117910441   -0.220181771517
     H    1.281578066797   -2.048238723148   -0.417353607889
     H    0.562857026196   -1.721163099348    1.195622853019
     H   -1.988523002794    0.552230011997   -0.967699090297
  }
 
 basis=cc-pvdz
 {rhf;maxit,200}
 {uccsd(t);maxit,200}

 Variables initialized (661), CPU time= 0.00 sec
 Commands  initialized (458), CPU time= 0.00 sec, 486 directives.
 Default parameters read. Elapsed time= 0.05 sec

 Checking input...
 Passed
1


                                         ***  PROGRAM SYSTEM MOLPRO  ***
                         Copyright, University College Cardiff Consultants Limited, 2008

                                    Version 2010.1 linked May 16 2016 07:17:05


 **********************************************************************************************************************************
 LABEL *   Frequencies for min3                                                          
 Linux-4.4.3/n083(x86_64) 64 bit mpp version                                             DATE: 07-Mar-20          TIME: 04:31:19  
 **********************************************************************************************************************************

 SHA1:             9e8077add272b0f3cad6f7df79ec5211205f459d
 **********************************************************************************************************************************

 THRESHOLDS:

 ZERO    =  1.00D-12  ONEINT  =  1.00D-16  TWOINT  =  1.00D-16  PREFAC  =  1.00D-14  LOCALI  =  1.00D-09  EORDER  =  1.00D-04
 ENERGY  =  1.00D-10  ETEST   =  0.00D+00  EDENS   =  0.00D+00  THRDEDEF=  1.00D-06  GRADIENT=  1.00D-02  STEP    =  1.00D-03
 ORBITAL =  1.00D-10  CIVEC   =  1.00D-05  COEFF   =  1.00D-04  PRINTCI =  5.00D-02  PUNCHCI =  9.90D+01  OPTGRAD =  1.00D-06
 OPTENERG=  1.00D-06  OPTSTEP =  3.00D-04  THRGRAD =  1.00D-10  COMPRESS=  1.00D-13  VARMIN  =  1.00D-07  VARMAX  =  1.00D-03
 THRDOUB =  0.00D+00  THRDIV  =  1.00D-05  THRRED  =  1.00D-07  THRPSP  =  1.00D+00  THRDC   =  1.00D-10  THRCS   =  1.00D-10
 THRNRM  =  1.00D-08  THREQ   =  0.00D+00  THRDE   =  1.00D+00  THRREF  =  1.00D-05  SPARFAC =  1.00D+00  THRDLP  =  1.00D-07
 THRDIA  =  1.00D-10  THRDLS  =  1.00D-07  THRGPS  =  0.00D+00  THRKEX  =  0.00D+00  THRDIS  =  2.00D-01  THRVAR  =  1.00D-10
 THRLOC  =  1.00D-06  THRGAP  =  1.00D-06  THRLOCT = -1.00D+00  THRGAPT = -1.00D+00  THRORB  =  1.00D-06  THRMLTP =  0.00D+00
 THRCPQCI=  1.00D-10  KEXTA   =  0.00D+00  THRCOARS=  0.00D+00  SYMTOL  =  1.00D-06  GRADTOL =  1.00D-06  THROVL  =  1.00D-08
 THRORTH =  1.00D-08  GRID    =  1.00D-06  GRIDMAX =  1.00D-03  DTMAX   =  0.00D+00

 SETTING GEOMTYP        =    XYZ

 Variable memory set to 1000000000 words,  buffer space   230000 words

 SETTING BASIS          =    CC-PVDZ


 Recomputing integrals since basis changed


 Using spherical harmonics

 Library entry C      S cc-pVDZ              selected for orbital group  1
 Library entry C      P cc-pVDZ              selected for orbital group  1
 Library entry C      D cc-pVDZ              selected for orbital group  1
 Library entry O      S cc-pVDZ              selected for orbital group  2
 Library entry O      P cc-pVDZ              selected for orbital group  2
 Library entry O      D cc-pVDZ              selected for orbital group  2
 Library entry H      S cc-pVDZ              selected for orbital group  3
 Library entry H      P cc-pVDZ              selected for orbital group  3

1PROGRAM * SEWARD (Integral evaluation for generally contracted gaussian basis sets)     Author: Roland Lindh, 1990

 Geometry written to block  1 of record 700


 Point group  C1  



 ATOMIC COORDINATES

 NR  ATOM    CHARGE       X              Y              Z

   1  C       6.00    3.357976046    1.344348918   -0.089443368
   2  C       6.00    0.929389944   -0.113370094   -0.371319661
   3  C       6.00    0.851005696   -2.903174955    0.191651343
   4  O       8.00   -1.059697462    1.374274865    0.480848305
   5  O       8.00   -3.473014908    0.174363212   -0.227772083
   6  H       1.00    4.885647037    0.399612664   -1.155455816
   7  H       1.00    3.137751146    3.293580974   -0.806029364
   8  H       1.00    3.959209599    1.466472499    1.923302399
   9  H       1.00   -0.954597847   -3.747549737   -0.416083247
  10  H       1.00    2.421831562   -3.870610239   -0.788684019
  11  H       1.00    1.063645631   -3.252526885    2.259399749
  12  H       1.00   -3.757763881    1.043563484   -1.828686258

 Bond lengths in Bohr (Angstrom)

 1-2  2.846476668  1-6  2.088704811  1-7  2.088420481  1-8  2.104172397  2-3  2.847119878
     ( 1.506290578)     ( 1.105294982)     ( 1.105144521)     ( 1.113480076)     ( 1.506630951)

  2- 4  2.625975338   3- 9  2.083870020   3-10  2.089134355   3-11  2.107805964   4- 5  2.786760112
       ( 1.389606300)       ( 1.102736521)       ( 1.105522287)       ( 1.115402877)       ( 1.474689938)

  5-12  1.843777993
       ( 0.975685292)

 Bond angles

  1-2-3  120.37866573   1-2-4  108.90555081   2-1-6  109.98947225   2-1-7  110.73429490

  2- 1- 8  111.60659369   2- 3- 9  111.29849874   2- 3-10  109.89328261   2- 3-11  110.70789630

  2- 4- 5  109.23946113   3- 2- 4  118.03986083   4- 5-12   98.71650650   6- 1- 7  108.91518355

  6- 1- 8  107.78590075   7- 1- 8  107.70852594   9- 3-10  109.08731308   9- 3-11  107.83929048

 10- 3-11  107.92255475

 NUCLEAR CHARGE:                   41
 NUMBER OF PRIMITIVE AOS:         184
 NUMBER OF SYMMETRY AOS:          179
 NUMBER OF CONTRACTIONS:          105   ( 105A   )
 NUMBER OF CORE ORBITALS:           5   (   5A   )
 NUMBER OF VALENCE ORBITALS:       27   (  27A   )


 NUCLEAR REPULSION ENERGY  183.20110784


 Eigenvalues of metric

         1 0.345E-02 0.435E-02 0.105E-01 0.141E-01 0.182E-01 0.214E-01 0.331E-01 0.345E-01


 Contracted 2-electron integrals neglected if value below      1.0D-16
 AO integral compression algorithm  1   Integral accuracy      1.0D-16

     127.402 MB (compressed) written to integral file ( 93.4%)

     Node minimum: 40.632 MB, node maximum: 43.516 MB


 NUMBER OF SORTED TWO-ELECTRON INTEGRALS:    5164320.     BUFFER LENGTH:  32768
 NUMBER OF SEGMENTS:   1  SEGMENT LENGTH:    5164320      RECORD LENGTH: 524288

 Memory used in sort:       5.72 MW

 SORT1 READ    17075251. AND WROTE     5135864. INTEGRALS IN     15 RECORDS. CPU TIME:     0.20 SEC, REAL TIME:     0.24 SEC
 SORT2 READ    15396542. AND WROTE    15487395. INTEGRALS IN    465 RECORDS. CPU TIME:     0.06 SEC, REAL TIME:     0.09 SEC

 Node minimum:     5160610.  Node maximum:     5164320. integrals

 OPERATOR DM      FOR CENTER  0  COORDINATES:    0.000000    0.000000    0.000000


 **********************************************************************************************************************************
 DATASETS  * FILE   NREC   LENGTH (MB)   RECORD NAMES
              1      18        3.17       500      610      700      900      950      970     1000      129      960     1100   
                                          VAR    BASINP    GEOM    SYMINP    ZMAT    AOBASIS   BASIS     P2S    ABASIS      S 
                                         1400     1410     1200     1210     1080     1600     1650     1700   
                                           T        V       H0       H01     AOSYM     SMH    MOLCAS    OPER   

 PROGRAMS   *        TOTAL       INT
 CPU TIMES  *         0.80      0.76
 REAL TIME  *         1.20 SEC
 DISK USED  *       305.79 MB      
 GA USED    *         0.00 MB       (max)       0.00 MB       (current)
 **********************************************************************************************************************************

1PROGRAM * RHF-SCF (OPEN SHELL)       Authors: W. Meyer, H.-J. Werner


 NUMBER OF ELECTRONS:      21+   20-    SPACE SYMMETRY=1    SPIN SYMMETRY: Doublet 
 CONVERGENCE THRESHOLDS:    1.00E-10 (Density)    1.00E-11 (Energy)
 MAX. NUMBER OF ITERATIONS:      200
 INTERPOLATION TYPE:            DIIS
 INTERPOLATION STEPS:              2 (START)      1 (STEP)
 LEVEL SHIFTS:                 -0.30 (CLOSED)  0.00 (OPEN) 



 Orbital guess generated from atomic densities. Full valence occupancy:   32

 Molecular orbital dump at record        2100.2

 ITERATION    DDIFF          GRAD             ENERGY        2-EL.EN.            DIPOLE MOMENTS         DIIS
    1      0.000D+00      0.000D+00      -267.17816849    555.781867    0.56840    0.05073   -0.75012    0
    2      0.000D+00      0.617D-02      -267.24882563    555.701736    0.41305   -0.12994   -0.59945    1
    3      0.927D-02      0.214D-02      -267.26099654    555.619901    0.39284   -0.05807   -0.62679    2
    4      0.336D-02      0.912D-03      -267.26460079    555.771804    0.37838   -0.09825   -0.64312    3
    5      0.186D-02      0.363D-03      -267.26516910    555.743105    0.38099   -0.09175   -0.63608    4
    6      0.792D-03      0.110D-03      -267.26524531    555.729319    0.37928   -0.09155   -0.63880    5
    7      0.277D-03      0.510D-04      -267.26526536    555.726307    0.37859   -0.09129   -0.63828    6
    8      0.143D-03      0.272D-04      -267.26527139    555.724353    0.37888   -0.09140   -0.63849    7
    9      0.922D-04      0.115D-04      -267.26527230    555.724671    0.37907   -0.09136   -0.63824    8
   10      0.365D-04      0.500D-05      -267.26527246    555.725281    0.37933   -0.09137   -0.63831    9
   11      0.146D-04      0.196D-05      -267.26527249    555.725124    0.37938   -0.09137   -0.63832    9
   12      0.650D-05      0.670D-06      -267.26527249    555.725259    0.37940   -0.09137   -0.63831    9
   13      0.227D-05      0.226D-06      -267.26527249    555.725174    0.37940   -0.09137   -0.63831    9
   14      0.632D-06      0.759D-07      -267.26527249    555.725183    0.37940   -0.09137   -0.63831    9
   15      0.193D-06      0.302D-07      -267.26527249    555.725179    0.37940   -0.09137   -0.63831    9
   16      0.828D-07      0.146D-07      -267.26527249    555.725180    0.37940   -0.09137   -0.63831    9
   17      0.377D-07      0.756D-08      -267.26527249    555.725180    0.37940   -0.09137   -0.63831    9
   18      0.224D-07      0.343D-08      -267.26527249    555.725180    0.37940   -0.09137   -0.63831    9
   19      0.115D-07      0.133D-08      -267.26527249    555.725180    0.37940   -0.09137   -0.63831    9
   20      0.444D-08      0.568D-09      -267.26527249    555.725180    0.37940   -0.09137   -0.63831    9
   21      0.166D-08      0.287D-09      -267.26527249    555.725180    0.37940   -0.09137   -0.63831    9
   22      0.756D-09      0.162D-09      -267.26527249    555.725180    0.37940   -0.09137   -0.63831    9
   23      0.448D-09      0.798D-10      -267.26527249    555.725180    0.37940   -0.09137   -0.63831    9
   24      0.264D-09      0.317D-10      -267.26527249    555.725180    0.37940   -0.09137   -0.63831    9
   25      0.934D-10      0.129D-10      -267.26527249    555.725180    0.37940   -0.09137   -0.63831    0

 Final alpha occupancy:  21
 Final beta  occupancy:  20

 !RHF STATE 1.1 Energy               -267.265272490552
 Nuclear energy                       183.20110784
 One-electron energy                 -728.32897056
 Two-electron energy                  277.86259023
 Virial quotient                       -1.00157595
 !RHF STATE 1.1 Dipole moment           0.37939983    -0.09136910    -0.63830956
 Dipole moment /Debye                   0.96427503    -0.23222187    -1.62231481

 Orbital energies:

         1.1          2.1          3.1          4.1          5.1          6.1          7.1          8.1          9.1         10.1
    -20.630469   -20.628942   -11.279342   -11.237898   -11.232386    -1.470045    -1.240500    -1.023100    -0.945220    -0.768387

        11.1         12.1         13.1         14.1         15.1         16.1         17.1         18.1         19.1         20.1
     -0.704402    -0.643011    -0.626720    -0.588603    -0.544944    -0.543314    -0.538893    -0.516780    -0.492961    -0.469795

        21.1         22.1         23.1
     -0.352370     0.181171     0.183481


 **********************************************************************************************************************************
 DATASETS  * FILE   NREC   LENGTH (MB)   RECORD NAMES
              1      18        3.17       500      610      700      900      950      970     1000      129      960     1100   
                                          VAR    BASINP    GEOM    SYMINP    ZMAT    AOBASIS   BASIS     P2S    ABASIS      S 
                                         1400     1410     1200     1210     1080     1600     1650     1700   
                                           T        V       H0       H01     AOSYM     SMH    MOLCAS    OPER   

              2       3        0.77       700     1000     2100   
                                         GEOM     BASIS     RHF  

 PROGRAMS   *        TOTAL       RHF       INT
 CPU TIMES  *         1.73      0.93      0.76
 REAL TIME  *         2.27 SEC
 DISK USED  *       322.36 MB      
 SF USED    *         0.04 MB      
 GA USED    *         0.00 MB       (max)       0.00 MB       (current)
 **********************************************************************************************************************************


1PROGRAM * CCSD (Unrestricted open-shell coupled cluster)     Authors: C. Hampel, H.-J. Werner, 1991, M. Deegan, P.J. Knowles, 1992


 Convergence thresholds:  THRVAR = 1.00D-08  THRDEN = 1.00D-10

 CCSD(T)     terms to be evaluated (factor= 1.000)


 Number of core orbitals:           5 (   5 )
 Number of closed-shell orbitals:  15 (  15 )
 Number of active  orbitals:        1 (   1 )
 Number of external orbitals:      84 (  84 )

 Memory could be reduced to 24.91 Mwords without degradation in triples

 Number of N-1 electron functions:              31
 Number of N-2 electron functions:             465
 Number of singly external CSFs:              2635
 Number of doubly external CSFs:           2537250
 Total number of CSFs:                     2539885

 Molecular orbitals read from record     2100.2  Type=RHF/CANONICAL (state 1.1)

 Integral transformation finished. Total CPU:   0.72 sec, npass=  1  Memory used:  12.63 MW

 Starting RMP2 calculation

 ITER.      SQ.NORM     CORR.ENERGY   TOTAL ENERGY   ENERGY CHANGE        DEN1      VAR(S)    VAR(P)  DIIS     TIME
   1      1.24311918    -0.78647598  -268.05174847    -0.78647598    -0.00305170  0.20D-04  0.11D-02  1  1     0.97
   2      1.24576300    -0.78976710  -268.05503959    -0.00329112    -0.00000475  0.54D-06  0.19D-05  2  2     1.25
   3      1.24582864    -0.78980922  -268.05508171    -0.00004212    -0.00000003  0.16D-07  0.68D-08  3  3     1.55
   4      1.24582960    -0.78980922  -268.05508171    -0.00000000    -0.00000000  0.27D-09  0.38D-10  4  4     1.86
   5      1.24582968    -0.78980925  -268.05508174    -0.00000003    -0.00000000  0.26D-11  0.66D-12  5  5     2.20
   6      1.24582969    -0.78980926  -268.05508175    -0.00000001    -0.00000000  0.28D-13  0.87D-14  6  6     2.56
   7      1.24582969    -0.78980926  -268.05508175     0.00000000    -0.00000000  0.47D-15  0.12D-15  6  1     2.93
   8      1.24582969    -0.78980926  -268.05508175     0.00000000    -0.00000000  0.60D-17  0.13D-17  6  2     3.29

 Norm of t1 vector:      0.03893810      S-energy:    -0.00227174      T1 diagnostic:  0.00055077
 Norm of t2 vector:      0.49428081      P-energy:    -0.78753752
                                         Alpha-Beta:  -0.59350053
                                         Alpha-Alpha: -0.10094908
                                         Beta-Beta:   -0.09308791

 Spin contamination <S**2-Sz**2-Sz>     0.00104040
  Reference energy                   -267.265272490552
  RHF-RMP2 correlation energy          -0.789809257085
 !RHF-RMP2 energy                    -268.055081747637

 Starting UCCSD calculation

 ITER.      SQ.NORM     CORR.ENERGY   TOTAL ENERGY   ENERGY CHANGE        DEN1      VAR(S)    VAR(P)  DIIS     TIME
   1      1.26289454    -0.80913190  -268.07440439    -0.80913190    -0.02516918  0.38D-02  0.59D-02  1  1     9.51
   2      1.29169358    -0.83655495  -268.10182744    -0.02742304    -0.00201361  0.22D-03  0.66D-03  2  2    15.73
   3      1.30164920    -0.84105867  -268.10633116    -0.00450372    -0.00032504  0.19D-03  0.56D-04  3  3    21.95
   4      1.30656942    -0.84253780  -268.10781029    -0.00147913    -0.00007216  0.43D-04  0.14D-04  4  4    28.21
   5      1.30930179    -0.84292630  -268.10819879    -0.00038850    -0.00002369  0.19D-04  0.32D-05  5  5    34.52
   6      1.31124226    -0.84313093  -268.10840342    -0.00020463    -0.00000646  0.42D-05  0.12D-05  6  6    40.83
   7      1.31219203    -0.84318974  -268.10846223    -0.00005882    -0.00000208  0.14D-05  0.37D-06  6  2    47.15
   8      1.31263359    -0.84323244  -268.10850493    -0.00004269    -0.00000065  0.45D-06  0.11D-06  6  1    53.46
   9      1.31281874    -0.84323702  -268.10850952    -0.00000459    -0.00000022  0.15D-06  0.35D-07  6  4    59.78
  10      1.31288191    -0.84323996  -268.10851246    -0.00000294    -0.00000005  0.35D-07  0.95D-08  6  3    66.10
  11      1.31291134    -0.84323869  -268.10851118     0.00000127    -0.00000002  0.13D-07  0.28D-08  6  5    72.44
  12      1.31292169    -0.84323842  -268.10851092     0.00000027    -0.00000000  0.26D-08  0.95D-09  6  6    78.77
  13      1.31292055    -0.84323751  -268.10851000     0.00000092    -0.00000000  0.96D-09  0.29D-09  6  2    85.08
  14      1.31291534    -0.84323666  -268.10850915     0.00000084    -0.00000000  0.21D-09  0.68D-10  6  1    91.44
  15      1.31291126    -0.84323608  -268.10850857     0.00000059    -0.00000000  0.78D-10  0.19D-10  6  4    97.75
  16      1.31290808    -0.84323569  -268.10850818     0.00000038    -0.00000000  0.28D-10  0.63D-11  6  3   104.08
  17      1.31290587    -0.84323545  -268.10850794     0.00000024    -0.00000000  0.10D-10  0.24D-11  6  5   110.40
  18      1.31290497    -0.84323539  -268.10850788     0.00000006    -0.00000000  0.41D-11  0.87D-12  6  6   116.24
  19      1.31290436    -0.84323536  -268.10850785     0.00000003    -0.00000000  0.16D-11  0.37D-12  6  2   122.00
  20      1.31290404    -0.84323535  -268.10850784     0.00000001    -0.00000000  0.60D-12  0.13D-12  6  1   127.75
  21      1.31290387    -0.84323534  -268.10850783     0.00000001    -0.00000000  0.28D-12  0.58D-13  6  4   133.50
  22      1.31290375    -0.84323533  -268.10850782     0.00000001    -0.00000000  0.74D-13  0.21D-13  6  3   139.25
  23      1.31290369    -0.84323533  -268.10850782     0.00000000    -0.00000000  0.21D-13  0.63D-14  6  5   145.02
  24      1.31290369    -0.84323533  -268.10850782    -0.00000000    -0.00000000  0.68D-14  0.23D-14  6  6   150.78
  25      1.31290369    -0.84323533  -268.10850782    -0.00000000    -0.00000000  0.21D-14  0.53D-15  6  2   156.53
  26      1.31290370    -0.84323533  -268.10850782    -0.00000000    -0.00000000  0.77D-15  0.15D-15  6  1   162.27
  27      1.31290371    -0.84323533  -268.10850782    -0.00000000    -0.00000000  0.20D-15  0.63D-16  6  3   168.51
  28      1.31290371    -0.84323533  -268.10850782    -0.00000000    -0.00000000  0.30D-16  0.11D-16  6  4   174.83
  29      1.31290372    -0.84323533  -268.10850782    -0.00000000    -0.00000000  0.71D-17  0.29D-17  6  5   180.97
  30      1.31290372    -0.84323533  -268.10850782    -0.00000000    -0.00000000  0.15D-17  0.54D-18  6  6   186.73
  31      1.31290372    -0.84323533  -268.10850782    -0.00000000    -0.00000000  0.35D-18  0.10D-18  6  2   192.79

 Norm of t1 vector:      0.13877135      S-energy:    -0.00282163      T1 diagnostic:  0.01617610
                                                                       D1 diagnostic:  0.06285273
 Norm of t2 vector:      0.54189135      P-energy:    -0.84041369
                                         Alpha-Beta:  -0.66496893
                                         Alpha-Alpha: -0.09147342
                                         Beta-Beta:   -0.08397134

 Spin contamination <S**2-Sz**2-Sz>     0.00217157

 Memory could be reduced to 28.85 Mwords without degradation in triples
 

 RESULTS
 =======

  Reference energy                   -267.265272490552
  UCCSD singles energy                 -0.002821634547
  UCCSD pair energy                    -0.840413694986
  UCCSD correlation energy             -0.843235329533
  Triples (T) contribution             -0.024986586346
  Total correlation energy             -0.868221915879
 
  RHF-UCCSD energy                   -268.108507820085
  RHF-UCCSD[T] energy                -268.134831565010
  RHF-UCCSD-T energy                 -268.133072423706
 !RHF-UCCSD(T) energy                -268.133494406431

 Program statistics:

 Available memory in ccsd:               999997692
 Min. memory needed in ccsd:               7337057
 Max. memory used in ccsd:                10523002
 Max. memory used in cckext:              10867977 (31 integral passes)
 Max. memory used in cckint:              12633073 ( 1 integral passes)



 **********************************************************************************************************************************
 DATASETS  * FILE   NREC   LENGTH (MB)   RECORD NAMES
              1      18        3.17       500      610      700      900      950      970     1000      129      960     1100   
                                          VAR    BASINP    GEOM    SYMINP    ZMAT    AOBASIS   BASIS     P2S    ABASIS      S 
                                         1400     1410     1200     1210     1080     1600     1650     1700   
                                           T        V       H0       H01     AOSYM     SMH    MOLCAS    OPER   

              2       3        0.77       700     1000     2100   
                                         GEOM     BASIS     RHF  

 PROGRAMS   *        TOTAL  UCCSD(T)       RHF       INT
 CPU TIMES  *       234.15    232.42      0.93      0.76
 REAL TIME  *       244.39 SEC
 DISK USED  *         1.29 GB      
 SF USED    *       553.73 MB      
 GA USED    *         0.00 MB       (max)       0.00 MB       (current)
 **********************************************************************************************************************************

        UCCSD(T)        RHF-SCF 
   -268.13349441   -267.26527249
 **********************************************************************************************************************************
 Variable memory released
