
Host: n022

Timers On : Fri Jun  5 02:21:06 2020
Timers Off: Fri Jun  5 03:12:13 2020

Wall Time:     3066.94 seconds

                                                       Time (seconds)
Module                                       User      System        Wall        Calls
JK: (A|mn)                          :     28.083u      0.017s      4.214w      7 calls
JK: (A|Q)^-1/2                      :      0.800u      0.017s      0.122w      1 calls
JK: (Q|mn)                          :     69.233u      0.533s     10.465w      7 calls
HF: Form core H                     :      1.450u      0.017s      0.220w      2 calls
HF: Form S/X                        :      1.133u      0.000s      0.171w      2 calls
HF: Guess                           :      2.283u      0.033s      0.348w      2 calls
SAD Guess                           :      2.200u      0.033s      0.336w      1 calls
HF: Form G                          :   4475.083u    167.000s    696.470w    342 calls
JK: D                               :      3.417u      0.017s      0.524w   1039 calls
JK: USO2AO                          :      4.517u      0.100s      0.633w   1039 calls
JK: JK                              :  19553.600u    502.917s   3009.017w   1039 calls
JK: J                               :   1320.717u      4.200s    198.703w   6505 calls
JK: J1                              :    611.933u      0.850s     91.889w   6505 calls
JK: J2                              :    626.083u      1.017s     94.156w   6505 calls
JK: K                               :  16771.383u      4.867s   2516.442w   6505 calls
JK: K1                              :  15122.617u      0.867s   2268.590w  10862 calls
JK: K2                              :   1637.217u      3.700s    246.132w   6505 calls
JK: (Q|mn) Read                     :   1223.767u    465.283s    253.371w   6377 calls
JK: AO2USO                          :      0.017u      0.000s      0.001w   1039 calls
HF: Form F                          :      1.717u      0.050s      0.295w    342 calls
HF: Form D                          :      1.250u      0.050s      0.192w    342 calls
HF: DIIS                            :      1.117u      0.017s      0.176w      5 calls
DIISManager::add_entry              :      0.083u      0.000s      0.013w      4 calls
DIISManager::extrapolate            :      0.017u      0.000s      0.006w      4 calls
bMatrix setup                       :      0.000u      0.000s      0.001w      4 calls
bMatrix pseudoinverse               :      0.000u      0.000s      0.000w      4 calls
New vector                          :      0.017u      0.000s      0.004w      4 calls
HF: Form C                          :      3.183u      0.050s      0.477w      6 calls
DFH: sparsity prep                  :      1.883u      0.050s      0.594w      1 calls
JK: (A|Q)^-1                        :      4.150u      1.683s      0.964w      1 calls
JK: (Q|mn) Write                    :      3.183u      1.200s      0.664w      6 calls

--------------------------------------------------------------------------------------
JK: (A|mn)                          :     28.083u      0.017s      4.214w      7 calls
JK: (A|Q)^-1/2                      :      0.800u      0.017s      0.122w      1 calls
JK: (Q|mn)                          :     69.233u      0.533s     10.465w      7 calls
HF: Form core H                     :      1.450u      0.017s      0.220w      2 calls
HF: Form S/X                        :      1.133u      0.000s      0.171w      2 calls
HF: Guess                           :      2.283u      0.033s      0.348w      2 calls
| SAD Guess                         :      2.200u      0.033s      0.336w      1 calls
HF: Form G                          :   4475.083u    167.000s    696.470w    342 calls
| JK: D                             :      1.233u      0.000s      0.187w    342 calls
| JK: USO2AO                        :      1.550u      0.050s      0.208w    342 calls
| JK: JK                            :   4468.617u    166.850s    695.532w    342 calls
| | JK: J                           :    435.767u      1.350s     65.499w   2148 calls
| | | JK: J1                        :    201.967u      0.250s     30.278w   2148 calls
| | | JK: J2                        :    206.483u      0.283s     31.082w   2148 calls
| | JK: K                           :   3547.783u      1.433s    532.414w   2148 calls
| | | JK: K1                        :   3016.350u      0.117s    452.495w   2148 calls
| | | JK: K2                        :    527.717u      1.283s     79.351w   2148 calls
| | JK: (Q|mn) Read                 :    405.667u    154.083s     83.959w   2107 calls
| JK: AO2USO                        :      0.017u      0.000s      0.000w    342 calls
HF: Form F                          :      1.717u      0.050s      0.295w    342 calls
HF: Form D                          :      1.250u      0.050s      0.192w    342 calls
HF: DIIS                            :      1.117u      0.017s      0.176w      5 calls
| DIISManager::add_entry            :      0.083u      0.000s      0.013w      4 calls
| DIISManager::extrapolate          :      0.017u      0.000s      0.006w      4 calls
| | bMatrix setup                   :      0.000u      0.000s      0.001w      4 calls
| | bMatrix pseudoinverse           :      0.000u      0.000s      0.000w      4 calls
| | New vector                      :      0.017u      0.000s      0.004w      4 calls
HF: Form C                          :      3.183u      0.050s      0.477w      6 calls
JK: D                               :      2.183u      0.017s      0.337w    697 calls
JK: USO2AO                          :      2.967u      0.050s      0.425w    697 calls
JK: JK                              :  15084.983u    336.067s   2313.485w    697 calls
| JK: J                             :    884.950u      2.850s    133.204w   4357 calls
| | JK: J1                          :    409.967u      0.600s     61.611w   4357 calls
| | JK: J2                          :    419.600u      0.733s     63.074w   4357 calls
| JK: K                             :  13223.600u      3.433s   1984.028w   4357 calls
| | JK: K1                          :  12106.267u      0.750s   1816.095w   8714 calls
| | JK: K2                          :   1109.500u      2.417s    166.781w   4357 calls
| JK: (Q|mn) Read                   :    818.100u    311.200s    169.412w   4270 calls
JK: AO2USO                          :      0.000u      0.000s      0.001w    697 calls
DFH: sparsity prep                  :      1.883u      0.050s      0.594w      1 calls
JK: (A|Q)^-1                        :      4.150u      1.683s      0.964w      1 calls
JK: (Q|mn) Write                    :      3.183u      1.200s      0.664w      6 calls

**************************************************************************************

Host: n064

Timers On : Fri Jun  5 11:46:20 2020
Timers Off: Fri Jun  5 11:47:20 2020

Wall Time:       60.78 seconds

                                                       Time (seconds)
Module                                       User      System        Wall        Calls
JK: (A|mn)                          :     25.683u      0.000s      3.860w     10 calls
JK: (A|Q)^-1/2                      :      1.517u      0.050s      0.235w      2 calls
JK: (Q|mn)                          :     31.633u      0.150s      4.766w     10 calls
HF: Form core H                     :      1.433u      0.000s      0.219w      4 calls
HF: Form S/X                        :      0.583u      0.017s      0.089w      4 calls
HF: Guess                           :      4.817u      0.067s      0.734w      4 calls
SAD Guess                           :      4.667u      0.067s      0.711w      2 calls
HF: Form G                          :    203.833u     10.133s     32.114w     60 calls
JK: D                               :      0.050u      0.000s      0.007w     60 calls
JK: USO2AO                          :      0.067u      0.000s      0.006w     60 calls
JK: JK                              :    203.650u     10.133s     32.072w     60 calls
JK: J                               :     24.467u      0.067s      3.692w    165 calls
JK: J1                              :     11.400u      0.000s      1.711w    165 calls
JK: J2                              :     11.517u      0.000s      1.715w    165 calls
JK: K                               :    150.317u      0.100s     22.566w    165 calls
JK: K1                              :    134.750u      0.000s     20.197w    165 calls
JK: K2                              :     15.467u      0.100s      2.341w    165 calls
JK: (Q|mn) Read                     :     23.467u      8.950s      4.837w    135 calls
JK: AO2USO                          :      0.000u      0.000s      0.000w     60 calls
HF: Form F                          :      0.133u      0.000s      0.016w     60 calls
HF: Form D                          :      0.100u      0.000s      0.007w     60 calls
HF: DIIS                            :      3.600u      0.317s      0.591w     58 calls
DIISManager::add_entry              :      0.383u      0.050s      0.069w     56 calls
DIISManager::extrapolate            :      1.217u      0.250s      0.217w     56 calls
bMatrix setup                       :      0.583u      0.133s      0.111w     56 calls
bMatrix pseudoinverse               :      0.000u      0.000s      0.003w     56 calls
New vector                          :      0.633u      0.117s      0.103w     56 calls
HF: Form C                          :      8.000u      0.083s      1.227w     58 calls
DFH: sparsity prep                  :      2.800u      0.050s      0.659w      2 calls
JK: (A|Q)^-1                        :      4.133u      1.700s      1.020w      2 calls
JK: (Q|mn) Write                    :      2.983u      1.117s      0.616w      8 calls
DFMP2 Singles                       :      0.100u      0.000s      0.013w      2 calls
DFMP2 Aia                           :     41.983u      0.467s      6.748w      2 calls
DFMP2 (A|mn)                        :     33.317u      0.167s      5.018w     13 calls
DFMP2 (A|mn)C_mi                    :      2.650u      0.017s      0.405w     13 calls
DFMP2 (A|mi)C_na                    :      1.083u      0.000s      0.164w     13 calls
DFMP2 Aia Write                     :      0.300u      0.117s      0.060w     13 calls
DFMP2 Qia                           :      5.750u      0.217s      0.894w      2 calls
DFMP2 Metric                        :      3.550u      0.017s      0.535w      2 calls
DFMP2 Aia Read                      :      0.117u      0.033s      0.024w      2 calls
DFMP2 (Q|A)(A|ia)                   :      1.633u      0.000s      0.247w      2 calls
DFMP2 Qia Write                     :      0.283u      0.117s      0.057w      2 calls
DFMP2 Energy                        :      9.000u      0.167s      1.378w      2 calls
DFMP2 Qia Read                      :      0.200u      0.033s      0.038w      4 calls

--------------------------------------------------------------------------------------
JK: (A|mn)                          :     25.683u      0.000s      3.860w     10 calls
JK: (A|Q)^-1/2                      :      1.517u      0.050s      0.235w      2 calls
JK: (Q|mn)                          :     31.633u      0.150s      4.766w     10 calls
HF: Form core H                     :      1.433u      0.000s      0.219w      4 calls
HF: Form S/X                        :      0.583u      0.017s      0.089w      4 calls
HF: Guess                           :      4.817u      0.067s      0.734w      4 calls
| SAD Guess                         :      4.667u      0.067s      0.711w      2 calls
HF: Form G                          :    203.833u     10.133s     32.114w     60 calls
| JK: D                             :      0.050u      0.000s      0.007w     60 calls
| JK: USO2AO                        :      0.067u      0.000s      0.006w     60 calls
| JK: JK                            :    203.650u     10.133s     32.072w     60 calls
| | JK: J                           :     24.467u      0.067s      3.692w    165 calls
| | | JK: J1                        :     11.400u      0.000s      1.711w    165 calls
| | | JK: J2                        :     11.517u      0.000s      1.715w    165 calls
| | JK: K                           :    150.317u      0.100s     22.566w    165 calls
| | | JK: K1                        :    134.750u      0.000s     20.197w    165 calls
| | | JK: K2                        :     15.467u      0.100s      2.341w    165 calls
| | JK: (Q|mn) Read                 :     23.467u      8.950s      4.837w    135 calls
| JK: AO2USO                        :      0.000u      0.000s      0.000w     60 calls
HF: Form F                          :      0.133u      0.000s      0.016w     60 calls
HF: Form D                          :      0.100u      0.000s      0.007w     60 calls
HF: DIIS                            :      3.600u      0.317s      0.591w     58 calls
| DIISManager::add_entry            :      0.383u      0.050s      0.069w     56 calls
| DIISManager::extrapolate          :      1.217u      0.250s      0.217w     56 calls
| | bMatrix setup                   :      0.583u      0.133s      0.111w     56 calls
| | bMatrix pseudoinverse           :      0.000u      0.000s      0.003w     56 calls
| | New vector                      :      0.633u      0.117s      0.103w     56 calls
HF: Form C                          :      8.000u      0.083s      1.227w     58 calls
DFH: sparsity prep                  :      2.800u      0.050s      0.659w      2 calls
JK: (A|Q)^-1                        :      4.133u      1.700s      1.020w      2 calls
JK: (Q|mn) Write                    :      2.983u      1.117s      0.616w      8 calls
DFMP2 Singles                       :      0.100u      0.000s      0.013w      2 calls
DFMP2 Aia                           :     41.983u      0.467s      6.748w      2 calls
| DFMP2 (A|mn)                      :     33.317u      0.167s      5.018w     13 calls
| DFMP2 (A|mn)C_mi                  :      2.650u      0.017s      0.405w     13 calls
| DFMP2 (A|mi)C_na                  :      1.083u      0.000s      0.164w     13 calls
| DFMP2 Aia Write                   :      0.300u      0.117s      0.060w     13 calls
DFMP2 Qia                           :      5.750u      0.217s      0.894w      2 calls
| DFMP2 Metric                      :      3.550u      0.017s      0.535w      2 calls
| DFMP2 Aia Read                    :      0.117u      0.033s      0.024w      2 calls
| DFMP2 (Q|A)(A|ia)                 :      1.633u      0.000s      0.247w      2 calls
| DFMP2 Qia Write                   :      0.283u      0.117s      0.057w      2 calls
DFMP2 Energy                        :      9.000u      0.167s      1.378w      2 calls
| DFMP2 Qia Read                    :      0.200u      0.033s      0.038w      4 calls

**************************************************************************************
