
 Primary working directories    : /tmp/320938.115.gen6.q
 Secondary working directories  : /tmp/320938.115.gen6.q
 Wavefunction directory         : /home/vulcan/mel64643/wfu/
 Main file repository           : /tmp/320938.115.gen6.q/

 ARCHNAME  : Linux/x86_64
 FC        : /opt/intel/compilers_and_libraries_2016.1.150/linux/bin/intel64/ifort
 FCVERSION : 16.0.1
 BLASLIB   : -mkl
 id        : ccgc

 Nodes     nprocs
 n080         3
 Number of processes for MPI-2 version of Molpro:   nprocs(total)=    4   nprocs(compute)=    3   nprocs(helper)=    1
 ga_uses_ma=false, calling ma_init with nominal heap.
 GA-space will be limited to   8.0 MW (determined by -G option)

 Using customized tuning parameters: mindgm=10; mindgv=16; mindgc=4; mindgr=1; noblas=0; mincuda=1000; minvec=7
 default implementation of scratch files=sf  

 ***,Frequencies for min3
 memory,1000,m
 gthresh,energy=1.0d-10,orbital=1.0d-10,oneint=1.0d-16,twoint=1.0d-16,optgrad=1.0d-6,compress=1.0d-13
 geomtyp=xyz
 
  geometry = {
  12
  arbitrary comment
     C    1.776964391707    0.711398808326   -0.047331391796
     C    0.491127713802   -0.059995802020   -0.196470577790
     C    0.450484516123   -1.536299389253    0.101426451761
     O   -0.560607193866    0.727234013428    0.254017575997
     O   -1.837674038166    0.092271204998   -0.120286895214
     H    2.585587605304    0.211658998201   -0.610714930381
     H    1.660606855571    1.743016639148   -0.425443261312
     H    2.095168257053    0.773750809923    1.018494610650
     H   -0.504674116999   -1.982730904353   -0.220323110147
     H    1.282111605082   -2.047082699592   -0.417236543455
     H    0.561836462200   -1.719534629084    1.194690903680
     H   -1.987799224203    0.551088903997   -0.966629719481
  }
 
 basis=cc-pvdz
 {rhf;maxit,200}
 {uccsd(t);maxit,200}

 Variables initialized (661), CPU time= 0.00 sec
 Commands  initialized (458), CPU time= 0.01 sec, 486 directives.
 Default parameters read. Elapsed time= 0.06 sec

 Checking input...
 Passed
1


                                         ***  PROGRAM SYSTEM MOLPRO  ***
                         Copyright, University College Cardiff Consultants Limited, 2008

                                    Version 2010.1 linked May 16 2016 07:17:05


 **********************************************************************************************************************************
 LABEL *   Frequencies for min3                                                          
 Linux-4.4.3/n080(x86_64) 64 bit mpp version                                             DATE: 07-Mar-20          TIME: 01:38:04  
 **********************************************************************************************************************************

 SHA1:             9e8077add272b0f3cad6f7df79ec5211205f459d
 **********************************************************************************************************************************

 THRESHOLDS:

 ZERO    =  1.00D-12  ONEINT  =  1.00D-16  TWOINT  =  1.00D-16  PREFAC  =  1.00D-14  LOCALI  =  1.00D-09  EORDER  =  1.00D-04
 ENERGY  =  1.00D-10  ETEST   =  0.00D+00  EDENS   =  0.00D+00  THRDEDEF=  1.00D-06  GRADIENT=  1.00D-02  STEP    =  1.00D-03
 ORBITAL =  1.00D-10  CIVEC   =  1.00D-05  COEFF   =  1.00D-04  PRINTCI =  5.00D-02  PUNCHCI =  9.90D+01  OPTGRAD =  1.00D-06
 OPTENERG=  1.00D-06  OPTSTEP =  3.00D-04  THRGRAD =  1.00D-10  COMPRESS=  1.00D-13  VARMIN  =  1.00D-07  VARMAX  =  1.00D-03
 THRDOUB =  0.00D+00  THRDIV  =  1.00D-05  THRRED  =  1.00D-07  THRPSP  =  1.00D+00  THRDC   =  1.00D-10  THRCS   =  1.00D-10
 THRNRM  =  1.00D-08  THREQ   =  0.00D+00  THRDE   =  1.00D+00  THRREF  =  1.00D-05  SPARFAC =  1.00D+00  THRDLP  =  1.00D-07
 THRDIA  =  1.00D-10  THRDLS  =  1.00D-07  THRGPS  =  0.00D+00  THRKEX  =  0.00D+00  THRDIS  =  2.00D-01  THRVAR  =  1.00D-10
 THRLOC  =  1.00D-06  THRGAP  =  1.00D-06  THRLOCT = -1.00D+00  THRGAPT = -1.00D+00  THRORB  =  1.00D-06  THRMLTP =  0.00D+00
 THRCPQCI=  1.00D-10  KEXTA   =  0.00D+00  THRCOARS=  0.00D+00  SYMTOL  =  1.00D-06  GRADTOL =  1.00D-06  THROVL  =  1.00D-08
 THRORTH =  1.00D-08  GRID    =  1.00D-06  GRIDMAX =  1.00D-03  DTMAX   =  0.00D+00

 SETTING GEOMTYP        =    XYZ

 Variable memory set to 1000000000 words,  buffer space   230000 words

 SETTING BASIS          =    CC-PVDZ


 Recomputing integrals since basis changed


 Using spherical harmonics

 Library entry C      S cc-pVDZ              selected for orbital group  1
 Library entry C      P cc-pVDZ              selected for orbital group  1
 Library entry C      D cc-pVDZ              selected for orbital group  1
 Library entry O      S cc-pVDZ              selected for orbital group  2
 Library entry O      P cc-pVDZ              selected for orbital group  2
 Library entry O      D cc-pVDZ              selected for orbital group  2
 Library entry H      S cc-pVDZ              selected for orbital group  3
 Library entry H      P cc-pVDZ              selected for orbital group  3

1PROGRAM * SEWARD (Integral evaluation for generally contracted gaussian basis sets)     Author: Roland Lindh, 1990

 Geometry written to block  1 of record 700


 Point group  C1  



 ATOMIC COORDINATES

 NR  ATOM    CHARGE       X              Y              Z

   1  C       6.00    3.357976046    1.344348918   -0.089443368
   2  C       6.00    0.928096875   -0.113375635   -0.371275585
   3  C       6.00    0.851292362   -2.903185102    0.191668216
   4  O       8.00   -1.059394064    1.374273119    0.480023651
   5  O       8.00   -3.472700651    0.174367307   -0.227309289
   6  H       1.00    4.886052463    0.399977540   -1.154083963
   7  H       1.00    3.138092169    3.293824091   -0.803971248
   8  H       1.00    3.959294205    1.462177125    1.924675880
   9  H       1.00   -0.953695867   -3.746818402   -0.416350339
  10  H       1.00    2.422839804   -3.868425671   -0.788462799
  11  H       1.00    1.061717044   -3.249449522    2.257638620
  12  H       1.00   -3.756396138    1.041407103   -1.826665440

 Bond lengths in Bohr (Angstrom)

 1-2  2.847578455  1-6  2.088136593  1-7  2.087906238  1-8  2.105265627  2-3  2.847075959
     ( 1.506873619)     ( 1.104994295)     ( 1.104872396)     ( 1.114058589)     ( 1.506607710)

  2- 4  2.624486509   3- 9  2.083119347   3-10  2.088565901   3-11  2.105329263   4- 5  2.786421097
       ( 1.388818446)       ( 1.102339282)       ( 1.105221475)       ( 1.114092263)       ( 1.474510539)

  5-12  1.841244480
       ( 0.974344615)

 Bond angles

  1-2-3  120.33603029   1-2-4  108.90066949   2-1-6  110.02728380   2-1-7  110.74691299

  2- 1- 8  111.53486500   2- 3- 9  111.25393865   2- 3-10  109.86286545   2- 3-11  110.64008854

  2- 4- 5  109.23532639   3- 2- 4  118.09062057   4- 5-12   98.69451389   6- 1- 7  108.95677444

  6- 1- 8  107.70235693   7- 1- 8  107.77190895   9- 3-10  109.13819454   9- 3-11  107.84348722

 10- 3-11  108.01666601

 NUCLEAR CHARGE:                   41
 NUMBER OF PRIMITIVE AOS:         184
 NUMBER OF SYMMETRY AOS:          179
 NUMBER OF CONTRACTIONS:          105   ( 105A   )
 NUMBER OF CORE ORBITALS:           5   (   5A   )
 NUMBER OF VALENCE ORBITALS:       27   (  27A   )


 NUCLEAR REPULSION ENERGY  183.23656752


 Eigenvalues of metric

         1 0.346E-02 0.435E-02 0.105E-01 0.141E-01 0.182E-01 0.214E-01 0.331E-01 0.346E-01


 Contracted 2-electron integrals neglected if value below      1.0D-16
 AO integral compression algorithm  1   Integral accuracy      1.0D-16

     127.664 MB (compressed) written to integral file ( 93.2%)

     Node minimum: 34.341 MB, node maximum: 56.885 MB


 NUMBER OF SORTED TWO-ELECTRON INTEGRALS:    5164320.     BUFFER LENGTH:  32768
 NUMBER OF SEGMENTS:   1  SEGMENT LENGTH:    5164320      RECORD LENGTH: 524288

 Memory used in sort:       5.72 MW

 SORT1 READ    17075251. AND WROTE     5135902. INTEGRALS IN     15 RECORDS. CPU TIME:     0.30 SEC, REAL TIME:     0.34 SEC
 SORT2 READ    15396643. AND WROTE    15487395. INTEGRALS IN    393 RECORDS. CPU TIME:     0.08 SEC, REAL TIME:     0.12 SEC

 Node minimum:     5160610.  Node maximum:     5164320. integrals

 OPERATOR DM      FOR CENTER  0  COORDINATES:    0.000000    0.000000    0.000000


 **********************************************************************************************************************************
 DATASETS  * FILE   NREC   LENGTH (MB)   RECORD NAMES
              1      18        3.17       500      610      700      900      950      970     1000      129      960     1100   
                                          VAR    BASINP    GEOM    SYMINP    ZMAT    AOBASIS   BASIS     P2S    ABASIS      S 
                                         1400     1410     1200     1210     1080     1600     1650     1700   
                                           T        V       H0       H01     AOSYM     SMH    MOLCAS    OPER   

 PROGRAMS   *        TOTAL       INT
 CPU TIMES  *         1.12      1.04
 REAL TIME  *         1.55 SEC
 DISK USED  *       318.59 MB      
 GA USED    *         0.00 MB       (max)       0.00 MB       (current)
 **********************************************************************************************************************************

1PROGRAM * RHF-SCF (OPEN SHELL)       Authors: W. Meyer, H.-J. Werner


 NUMBER OF ELECTRONS:      21+   20-    SPACE SYMMETRY=1    SPIN SYMMETRY: Doublet 
 CONVERGENCE THRESHOLDS:    1.00E-10 (Density)    1.00E-11 (Energy)
 MAX. NUMBER OF ITERATIONS:      200
 INTERPOLATION TYPE:            DIIS
 INTERPOLATION STEPS:              2 (START)      1 (STEP)
 LEVEL SHIFTS:                 -0.30 (CLOSED)  0.00 (OPEN) 



 Orbital guess generated from atomic densities. Full valence occupancy:   32

 Molecular orbital dump at record        2100.2

 ITERATION    DDIFF          GRAD             ENERGY        2-EL.EN.            DIPOLE MOMENTS         DIIS
    1      0.000D+00      0.000D+00      -267.17826159    555.840757    0.56813    0.05014   -0.74800    0
    2      0.000D+00      0.617D-02      -267.24893368    555.765371    0.41256   -0.13078   -0.59810    1
    3      0.927D-02      0.214D-02      -267.26110912    555.682279    0.39220   -0.05875   -0.62551    2
    4      0.336D-02      0.912D-03      -267.26472108    555.834836    0.37760   -0.09893   -0.64202    3
    5      0.186D-02      0.364D-03      -267.26529165    555.806258    0.38013   -0.09245   -0.63506    4
    6      0.793D-03      0.110D-03      -267.26536841    555.792456    0.37838   -0.09224   -0.63781    5
    7      0.278D-03      0.512D-04      -267.26538862    555.789468    0.37766   -0.09198   -0.63731    6
    8      0.144D-03      0.273D-04      -267.26539470    555.787509    0.37792   -0.09210   -0.63753    7
    9      0.926D-04      0.115D-04      -267.26539562    555.787831    0.37810   -0.09206   -0.63729    8
   10      0.366D-04      0.501D-05      -267.26539578    555.788440    0.37836   -0.09207   -0.63735    9
   11      0.146D-04      0.196D-05      -267.26539580    555.788281    0.37841   -0.09206   -0.63736    9
   12      0.650D-05      0.670D-06      -267.26539581    555.788416    0.37843   -0.09206   -0.63735    9
   13      0.227D-05      0.226D-06      -267.26539581    555.788332    0.37844   -0.09206   -0.63735    9
   14      0.631D-06      0.759D-07      -267.26539581    555.788341    0.37844   -0.09207   -0.63735    9
   15      0.193D-06      0.302D-07      -267.26539581    555.788337    0.37844   -0.09207   -0.63735    9
   16      0.829D-07      0.146D-07      -267.26539581    555.788338    0.37844   -0.09207   -0.63735    9
   17      0.377D-07      0.756D-08      -267.26539581    555.788338    0.37844   -0.09207   -0.63735    9
   18      0.225D-07      0.343D-08      -267.26539581    555.788338    0.37844   -0.09207   -0.63735    9
   19      0.114D-07      0.133D-08      -267.26539581    555.788338    0.37844   -0.09207   -0.63735    9
   20      0.444D-08      0.570D-09      -267.26539581    555.788338    0.37844   -0.09207   -0.63735    9
   21      0.167D-08      0.288D-09      -267.26539581    555.788338    0.37844   -0.09207   -0.63735    9
   22      0.759D-09      0.162D-09      -267.26539581    555.788338    0.37844   -0.09207   -0.63735    9
   23      0.447D-09      0.798D-10      -267.26539581    555.788338    0.37844   -0.09207   -0.63735    9
   24      0.264D-09      0.318D-10      -267.26539581    555.788338    0.37844   -0.09207   -0.63735    9
   25      0.934D-10      0.129D-10      -267.26539581    555.788338    0.37844   -0.09207   -0.63735    0

 Final alpha occupancy:  21
 Final beta  occupancy:  20

 !RHF STATE 1.1 Energy               -267.265395805718
 Nuclear energy                       183.23656752
 One-electron energy                 -728.39613255
 Two-electron energy                  277.89416922
 Virial quotient                       -1.00155267
 !RHF STATE 1.1 Dipole moment           0.37843849    -0.09206662    -0.63734889
 Dipole moment /Debye                   0.96183170    -0.23399468    -1.61987319

 Orbital energies:

         1.1          2.1          3.1          4.1          5.1          6.1          7.1          8.1          9.1         10.1
    -20.630549   -20.628896   -11.279227   -11.237884   -11.232169    -1.470484    -1.240942    -1.023091    -0.945253    -0.768593

        11.1         12.1         13.1         14.1         15.1         16.1         17.1         18.1         19.1         20.1
     -0.704763    -0.643060    -0.626912    -0.588688    -0.545137    -0.543503    -0.538877    -0.516923    -0.493117    -0.469749

        21.1         22.1         23.1
     -0.352154     0.181289     0.183567


 **********************************************************************************************************************************
 DATASETS  * FILE   NREC   LENGTH (MB)   RECORD NAMES
              1      18        3.17       500      610      700      900      950      970     1000      129      960     1100   
                                          VAR    BASINP    GEOM    SYMINP    ZMAT    AOBASIS   BASIS     P2S    ABASIS      S 
                                         1400     1410     1200     1210     1080     1600     1650     1700   
                                           T        V       H0       H01     AOSYM     SMH    MOLCAS    OPER   

              2       3        0.77       700     1000     2100   
                                         GEOM     BASIS     RHF  

 PROGRAMS   *        TOTAL       RHF       INT
 CPU TIMES  *         2.49      1.38      1.04
 REAL TIME  *         3.06 SEC
 DISK USED  *       335.16 MB      
 SF USED    *         0.04 MB      
 GA USED    *         0.00 MB       (max)       0.00 MB       (current)
 **********************************************************************************************************************************


1PROGRAM * CCSD (Unrestricted open-shell coupled cluster)     Authors: C. Hampel, H.-J. Werner, 1991, M. Deegan, P.J. Knowles, 1992


 Convergence thresholds:  THRVAR = 1.00D-08  THRDEN = 1.00D-10

 CCSD(T)     terms to be evaluated (factor= 1.000)


 Number of core orbitals:           5 (   5 )
 Number of closed-shell orbitals:  15 (  15 )
 Number of active  orbitals:        1 (   1 )
 Number of external orbitals:      84 (  84 )

 Memory could be reduced to 24.91 Mwords without degradation in triples

 Number of N-1 electron functions:              31
 Number of N-2 electron functions:             465
 Number of singly external CSFs:              2635
 Number of doubly external CSFs:           2537250
 Total number of CSFs:                     2539885

 Molecular orbitals read from record     2100.2  Type=RHF/CANONICAL (state 1.1)

 Integral transformation finished. Total CPU:   0.68 sec, npass=  1  Memory used:  12.63 MW

 Starting RMP2 calculation

 ITER.      SQ.NORM     CORR.ENERGY   TOTAL ENERGY   ENERGY CHANGE        DEN1      VAR(S)    VAR(P)  DIIS     TIME
   1      1.24301997    -0.78637350  -268.05176931    -0.78637350    -0.00304947  0.20D-04  0.11D-02  1  1     0.93
   2      1.24566102    -0.78966213  -268.05505794    -0.00328863    -0.00000474  0.54D-06  0.19D-05  2  2     1.16
   3      1.24572657    -0.78970420  -268.05510000    -0.00004206    -0.00000003  0.16D-07  0.68D-08  3  3     1.42
   4      1.24572753    -0.78970420  -268.05510001    -0.00000000    -0.00000000  0.27D-09  0.38D-10  4  4     1.70
   5      1.24572761    -0.78970423  -268.05510004    -0.00000003    -0.00000000  0.25D-11  0.65D-12  5  5     2.00
   6      1.24572762    -0.78970424  -268.05510005    -0.00000001    -0.00000000  0.28D-13  0.87D-14  6  6     2.33
   7      1.24572762    -0.78970424  -268.05510004     0.00000000    -0.00000000  0.47D-15  0.12D-15  6  1     2.65
   8      1.24572762    -0.78970424  -268.05510004     0.00000000    -0.00000000  0.60D-17  0.13D-17  6  2     2.98

 Norm of t1 vector:      0.03893667      S-energy:    -0.00227191      T1 diagnostic:  0.00055042
 Norm of t2 vector:      0.49417766      P-energy:    -0.78743233
                                         Alpha-Beta:  -0.59340995
                                         Alpha-Alpha: -0.10094157
                                         Beta-Beta:   -0.09308081

 Spin contamination <S**2-Sz**2-Sz>     0.00104064
  Reference energy                   -267.265395805718
  RHF-RMP2 correlation energy          -0.789704239236
 !RHF-RMP2 energy                    -268.055100044954

 Starting UCCSD calculation

 ITER.      SQ.NORM     CORR.ENERGY   TOTAL ENERGY   ENERGY CHANGE        DEN1      VAR(S)    VAR(P)  DIIS     TIME
   1      1.26279750    -0.80904915  -268.07444496    -0.80904915    -0.02515307  0.38D-02  0.59D-02  1  1     7.56
   2      1.29156898    -0.83645605  -268.10185186    -0.02740690    -0.00201046  0.22D-03  0.66D-03  2  2    12.13
   3      1.30150871    -0.84095366  -268.10634946    -0.00449760    -0.00032452  0.19D-03  0.56D-04  3  3    16.72
   4      1.30642129    -0.84243045  -268.10782625    -0.00147679    -0.00007207  0.43D-04  0.14D-04  4  4    21.34
   5      1.30915144    -0.84281856  -268.10821437    -0.00038811    -0.00002366  0.19D-04  0.32D-05  5  5    26.01
   6      1.31109083    -0.84302303  -268.10841884    -0.00020447    -0.00000646  0.42D-05  0.12D-05  6  6    30.69
   7      1.31204003    -0.84308181  -268.10847761    -0.00005878    -0.00000208  0.14D-05  0.37D-06  6  2    35.40
   8      1.31248163    -0.84312447  -268.10852028    -0.00004267    -0.00000065  0.45D-06  0.11D-06  6  1    40.14
   9      1.31266718    -0.84312907  -268.10852488    -0.00000460    -0.00000022  0.15D-06  0.35D-07  6  4    44.90
  10      1.31273047    -0.84313200  -268.10852780    -0.00000292    -0.00000005  0.35D-07  0.95D-08  6  3    49.66
  11      1.31276004    -0.84313075  -268.10852655     0.00000125    -0.00000002  0.13D-07  0.28D-08  6  5    54.43
  12      1.31277043    -0.84313049  -268.10852630     0.00000026    -0.00000000  0.26D-08  0.95D-09  6  6    59.21
  13      1.31276928    -0.84312957  -268.10852538     0.00000092    -0.00000000  0.96D-09  0.28D-09  6  2    63.99
  14      1.31276406    -0.84312873  -268.10852453     0.00000085    -0.00000000  0.21D-09  0.67D-10  6  1    68.78
  15      1.31275998    -0.84312814  -268.10852395     0.00000059    -0.00000000  0.78D-10  0.19D-10  6  4    75.14
  16      1.31275680    -0.84312776  -268.10852356     0.00000038    -0.00000000  0.28D-10  0.63D-11  6  3    81.45
  17      1.31275460    -0.84312752  -268.10852332     0.00000024    -0.00000000  0.10D-10  0.24D-11  6  5    87.88
  18      1.31275370    -0.84312746  -268.10852326     0.00000006    -0.00000000  0.41D-11  0.87D-12  6  6    94.22
  19      1.31275309    -0.84312742  -268.10852323     0.00000003    -0.00000000  0.16D-11  0.37D-12  6  2   100.69
  20      1.31275277    -0.84312741  -268.10852322     0.00000001    -0.00000000  0.60D-12  0.13D-12  6  1   107.07
  21      1.31275261    -0.84312740  -268.10852321     0.00000001    -0.00000000  0.28D-12  0.58D-13  6  4   113.42
  22      1.31275249    -0.84312739  -268.10852320     0.00000001    -0.00000000  0.73D-13  0.21D-13  6  3   119.78
  23      1.31275243    -0.84312739  -268.10852320     0.00000000    -0.00000000  0.21D-13  0.62D-14  6  5   126.28
  24      1.31275242    -0.84312739  -268.10852320    -0.00000000    -0.00000000  0.67D-14  0.22D-14  6  6   132.72
  25      1.31275243    -0.84312739  -268.10852320    -0.00000000    -0.00000000  0.21D-14  0.52D-15  6  2   139.23
  26      1.31275243    -0.84312739  -268.10852320    -0.00000000    -0.00000000  0.77D-15  0.15D-15  6  1   145.59
  27      1.31275244    -0.84312739  -268.10852320    -0.00000000    -0.00000000  0.20D-15  0.62D-16  6  3   151.41
  28      1.31275245    -0.84312739  -268.10852320    -0.00000000    -0.00000000  0.30D-16  0.11D-16  6  4   157.70
  29      1.31275245    -0.84312740  -268.10852320    -0.00000000    -0.00000000  0.70D-17  0.29D-17  6  5   164.03
  30      1.31275245    -0.84312740  -268.10852320    -0.00000000    -0.00000000  0.15D-17  0.54D-18  6  6   170.42
  31      1.31275245    -0.84312740  -268.10852320    -0.00000000    -0.00000000  0.35D-18  0.10D-18  6  2   176.76

 Norm of t1 vector:      0.13871191      S-energy:    -0.00282159      T1 diagnostic:  0.01616798
                                                                       D1 diagnostic:  0.06281141
 Norm of t2 vector:      0.54176698      P-energy:    -0.84030580
                                         Alpha-Beta:  -0.66485706
                                         Alpha-Alpha: -0.09147538
                                         Beta-Beta:   -0.08397337

 Spin contamination <S**2-Sz**2-Sz>     0.00217285

 Memory could be reduced to 28.85 Mwords without degradation in triples
 

 RESULTS
 =======

  Reference energy                   -267.265395805718
  UCCSD singles energy                 -0.002821591095
  UCCSD pair energy                    -0.840305804266
  UCCSD correlation energy             -0.843127395361
  Triples (T) contribution             -0.024973426738
  Total correlation energy             -0.868100822099
 
  RHF-UCCSD energy                   -268.108523201079
  RHF-UCCSD[T] energy                -268.134831596412
  RHF-UCCSD-T energy                 -268.133075511766
 !RHF-UCCSD(T) energy                -268.133496627817

 Program statistics:

 Available memory in ccsd:               999997692
 Min. memory needed in ccsd:               7337057
 Max. memory used in ccsd:                10523002
 Max. memory used in cckext:              10867977 (31 integral passes)
 Max. memory used in cckint:              12633073 ( 1 integral passes)



 **********************************************************************************************************************************
 DATASETS  * FILE   NREC   LENGTH (MB)   RECORD NAMES
              1      18        3.17       500      610      700      900      950      970     1000      129      960     1100   
                                          VAR    BASINP    GEOM    SYMINP    ZMAT    AOBASIS   BASIS     P2S    ABASIS      S 
                                         1400     1410     1200     1210     1080     1600     1650     1700   
                                           T        V       H0       H01     AOSYM     SMH    MOLCAS    OPER   

              2       3        0.77       700     1000     2100   
                                         GEOM     BASIS     RHF  

 PROGRAMS   *        TOTAL  UCCSD(T)       RHF       INT
 CPU TIMES  *       219.31    216.81      1.38      1.04
 REAL TIME  *       227.52 SEC
 DISK USED  *         1.30 GB      
 SF USED    *       553.73 MB      
 GA USED    *         0.00 MB       (max)       0.00 MB       (current)
 **********************************************************************************************************************************

        UCCSD(T)        RHF-SCF 
   -268.13349663   -267.26539581
 **********************************************************************************************************************************
 Variable memory released
