
Host: vlogin2.ccqc.uga.edu

Timers On : Tue Sep 29 10:13:01 2020
Timers Off: Tue Sep 29 10:13:04 2020

Wall Time:        3.33 seconds

                                                       Time (seconds)
Module                                       User      System        Wall        Calls

--------------------------------------------------------------------------------------

**************************************************************************************

Host: vlogin2.ccqc.uga.edu

Timers On : Tue Sep 29 10:13:36 2020
Timers Off: Tue Sep 29 10:13:37 2020

Wall Time:        1.37 seconds

                                                       Time (seconds)
Module                                       User      System        Wall        Calls

--------------------------------------------------------------------------------------

**************************************************************************************

Host: vlogin2.ccqc.uga.edu

Timers On : Tue Sep 29 10:14:12 2020
Timers Off: Tue Sep 29 10:14:14 2020

Wall Time:        1.67 seconds

                                                       Time (seconds)
Module                                       User      System        Wall        Calls

--------------------------------------------------------------------------------------

**************************************************************************************

Host: vlogin2.ccqc.uga.edu

Timers On : Tue Sep 29 10:14:43 2020
Timers Off: Tue Sep 29 10:14:44 2020

Wall Time:        1.55 seconds

                                                       Time (seconds)
Module                                       User      System        Wall        Calls

--------------------------------------------------------------------------------------

**************************************************************************************

Host: vlogin2.ccqc.uga.edu

Timers On : Tue Sep 29 10:15:49 2020
Timers Off: Tue Sep 29 10:15:50 2020

Wall Time:        1.69 seconds

                                                       Time (seconds)
Module                                       User      System        Wall        Calls

--------------------------------------------------------------------------------------

**************************************************************************************

Host: vlogin2.ccqc.uga.edu

Timers On : Tue Sep 29 10:16:09 2020
Timers Off: Tue Sep 29 10:16:10 2020

Wall Time:        1.42 seconds

                                                       Time (seconds)
Module                                       User      System        Wall        Calls

--------------------------------------------------------------------------------------

**************************************************************************************

Host: vlogin2.ccqc.uga.edu

Timers On : Tue Sep 29 10:16:32 2020
Timers Off: Tue Sep 29 10:17:43 2020

Wall Time:       71.22 seconds

                                                       Time (seconds)
Module                                       User      System        Wall        Calls

--------------------------------------------------------------------------------------

**************************************************************************************

Host: vlogin2.ccqc.uga.edu

Timers On : Tue Sep 29 10:25:50 2020
Timers Off: Tue Sep 29 10:26:59 2020

Wall Time:       69.72 seconds

                                                       Time (seconds)
Module                                       User      System        Wall        Calls

--------------------------------------------------------------------------------------

**************************************************************************************
