
 Primary working directories    : /tmp/320938.99.gen6.q
 Secondary working directories  : /tmp/320938.99.gen6.q
 Wavefunction directory         : /home/vulcan/mel64643/wfu/
 Main file repository           : /tmp/320938.99.gen6.q/

 ARCHNAME  : Linux/x86_64
 FC        : /opt/intel/compilers_and_libraries_2016.1.150/linux/bin/intel64/ifort
 FCVERSION : 16.0.1
 BLASLIB   : -mkl
 id        : ccgc

 Nodes     nprocs
 n076         3
 Number of processes for MPI-2 version of Molpro:   nprocs(total)=    4   nprocs(compute)=    3   nprocs(helper)=    1
 ga_uses_ma=false, calling ma_init with nominal heap.
 GA-space will be limited to   8.0 MW (determined by -G option)

 Using customized tuning parameters: mindgm=10; mindgv=16; mindgc=4; mindgr=1; noblas=0; mincuda=1000; minvec=7
 default implementation of scratch files=sf  

 ***,Frequencies for min3
 memory,1000,m
 gthresh,energy=1.0d-10,orbital=1.0d-10,oneint=1.0d-16,twoint=1.0d-16,optgrad=1.0d-6,compress=1.0d-13
 geomtyp=xyz
 
  geometry = {
  12
  arbitrary comment
     C    1.776278548007    0.711327343990   -0.047325832693
     C    0.491946274645   -0.060012827333   -0.196492114088
     C    0.450406735260   -1.536312020726    0.101420596918
     O   -0.560603393482    0.727257722332    0.254451286492
     O   -1.837700184902    0.092342785896   -0.120538348037
     H    2.585519730902    0.209120573279   -0.611380443251
     H    1.660197140279    1.743474941689   -0.426284275450
     H    2.095054847811    0.774531417395    1.017780629253
     H   -0.504513126023   -1.982554604082   -0.220267516401
     H    1.282261124333   -2.046678474096   -0.417359472164
     H    0.562109111580   -1.718948193401    1.194585901454
     H   -1.988090848929    0.550913171050   -0.966869485061
  }
 
 basis=cc-pvdz
 {rhf;maxit,200}
 {uccsd(t);maxit,200}

 Variables initialized (661), CPU time= 0.00 sec
 Commands  initialized (458), CPU time= 0.01 sec, 486 directives.
 Default parameters read. Elapsed time= 0.05 sec

 Checking input...
 Passed
1


                                         ***  PROGRAM SYSTEM MOLPRO  ***
                         Copyright, University College Cardiff Consultants Limited, 2008

                                    Version 2010.1 linked May 16 2016 07:17:05


 **********************************************************************************************************************************
 LABEL *   Frequencies for min3                                                          
 Linux-4.4.3/n076(x86_64) 64 bit mpp version                                             DATE: 07-Mar-20          TIME: 01:31:49  
 **********************************************************************************************************************************

 SHA1:             9e8077add272b0f3cad6f7df79ec5211205f459d
 **********************************************************************************************************************************

 THRESHOLDS:

 ZERO    =  1.00D-12  ONEINT  =  1.00D-16  TWOINT  =  1.00D-16  PREFAC  =  1.00D-14  LOCALI  =  1.00D-09  EORDER  =  1.00D-04
 ENERGY  =  1.00D-10  ETEST   =  0.00D+00  EDENS   =  0.00D+00  THRDEDEF=  1.00D-06  GRADIENT=  1.00D-02  STEP    =  1.00D-03
 ORBITAL =  1.00D-10  CIVEC   =  1.00D-05  COEFF   =  1.00D-04  PRINTCI =  5.00D-02  PUNCHCI =  9.90D+01  OPTGRAD =  1.00D-06
 OPTENERG=  1.00D-06  OPTSTEP =  3.00D-04  THRGRAD =  1.00D-10  COMPRESS=  1.00D-13  VARMIN  =  1.00D-07  VARMAX  =  1.00D-03
 THRDOUB =  0.00D+00  THRDIV  =  1.00D-05  THRRED  =  1.00D-07  THRPSP  =  1.00D+00  THRDC   =  1.00D-10  THRCS   =  1.00D-10
 THRNRM  =  1.00D-08  THREQ   =  0.00D+00  THRDE   =  1.00D+00  THRREF  =  1.00D-05  SPARFAC =  1.00D+00  THRDLP  =  1.00D-07
 THRDIA  =  1.00D-10  THRDLS  =  1.00D-07  THRGPS  =  0.00D+00  THRKEX  =  0.00D+00  THRDIS  =  2.00D-01  THRVAR  =  1.00D-10
 THRLOC  =  1.00D-06  THRGAP  =  1.00D-06  THRLOCT = -1.00D+00  THRGAPT = -1.00D+00  THRORB  =  1.00D-06  THRMLTP =  0.00D+00
 THRCPQCI=  1.00D-10  KEXTA   =  0.00D+00  THRCOARS=  0.00D+00  SYMTOL  =  1.00D-06  GRADTOL =  1.00D-06  THROVL  =  1.00D-08
 THRORTH =  1.00D-08  GRID    =  1.00D-06  GRIDMAX =  1.00D-03  DTMAX   =  0.00D+00

 SETTING GEOMTYP        =    XYZ

 Variable memory set to 1000000000 words,  buffer space   230000 words

 SETTING BASIS          =    CC-PVDZ


 Recomputing integrals since basis changed


 Using spherical harmonics

 Library entry C      S cc-pVDZ              selected for orbital group  1
 Library entry C      P cc-pVDZ              selected for orbital group  1
 Library entry C      D cc-pVDZ              selected for orbital group  1
 Library entry O      S cc-pVDZ              selected for orbital group  2
 Library entry O      P cc-pVDZ              selected for orbital group  2
 Library entry O      D cc-pVDZ              selected for orbital group  2
 Library entry H      S cc-pVDZ              selected for orbital group  3
 Library entry H      P cc-pVDZ              selected for orbital group  3

1PROGRAM * SEWARD (Integral evaluation for generally contracted gaussian basis sets)     Author: Roland Lindh, 1990

 Geometry written to block  1 of record 700


 Point group  C1  



 ATOMIC COORDINATES

 NR  ATOM    CHARGE       X              Y              Z

   1  C       6.00    3.356679989    1.344213870   -0.089432863
   2  C       6.00    0.929643730   -0.113407808   -0.371316283
   3  C       6.00    0.851145377   -2.903208972    0.191657152
   4  O       8.00   -1.059386882    1.374317922    0.480843245
   5  O       8.00   -3.472750061    0.174502576   -0.227784466
   6  H       1.00    4.885924199    0.395180612   -1.155341600
   7  H       1.00    3.137317919    3.294690157   -0.805560535
   8  H       1.00    3.959079893    1.463652259    1.923326651
   9  H       1.00   -0.953391638   -3.746485242   -0.416245282
  10  H       1.00    2.423122354   -3.867661795   -0.788695101
  11  H       1.00    1.062232277   -3.248341320    2.257440194
  12  H       1.00   -3.756947229    1.041075015   -1.827118532

 Bond lengths in Bohr (Angstrom)

 1-2  2.845105309  1-6  2.091748889  1-7  2.089333938  1-8  2.104364995  2-3  2.847119880
     ( 1.505564887)     ( 1.106905839)     ( 1.105627902)     ( 1.113581995)     ( 1.506630952)

  2- 4  2.625975340   3- 9  2.082549898   3-10  2.088629073   3-11  2.105025794   4- 5  2.786760114
       ( 1.389606301)       ( 1.102037943)       ( 1.105254903)       ( 1.113931675)       ( 1.474689939)

  5-12  1.841082637
       ( 0.974258971)

 Bond angles

  1-2-3  120.39382132   1-2-4  108.88909247   2-1-6  109.92104547   2-1-7  110.77838349

  2- 1- 8  111.59477853   2- 3- 9  111.28111484   2- 3-10  109.81014337   2- 3-11  110.60595303

  2- 4- 5  109.23946114   3- 2- 4  118.03986083   4- 5-12   98.73851823   6- 1- 7  109.00482006

  6- 1- 8  107.68987184   7- 1- 8  107.75234527   9- 3-10  109.15773029   9- 3-11  107.87624434

 10- 3-11  108.02573153

 NUCLEAR CHARGE:                   41
 NUMBER OF PRIMITIVE AOS:         184
 NUMBER OF SYMMETRY AOS:          179
 NUMBER OF CONTRACTIONS:          105   ( 105A   )
 NUMBER OF CORE ORBITALS:           5   (   5A   )
 NUMBER OF VALENCE ORBITALS:       27   (  27A   )


 NUCLEAR REPULSION ENERGY  183.23297885


 Eigenvalues of metric

         1 0.345E-02 0.435E-02 0.105E-01 0.141E-01 0.182E-01 0.214E-01 0.331E-01 0.346E-01


 Contracted 2-electron integrals neglected if value below      1.0D-16
 AO integral compression algorithm  1   Integral accuracy      1.0D-16

     127.664 MB (compressed) written to integral file ( 93.2%)

     Node minimum: 40.632 MB, node maximum: 43.778 MB


 NUMBER OF SORTED TWO-ELECTRON INTEGRALS:    5164320.     BUFFER LENGTH:  32768
 NUMBER OF SEGMENTS:   1  SEGMENT LENGTH:    5164320      RECORD LENGTH: 524288

 Memory used in sort:       5.72 MW

 SORT1 READ    17075629. AND WROTE     5135883. INTEGRALS IN     15 RECORDS. CPU TIME:     0.19 SEC, REAL TIME:     0.23 SEC
 SORT2 READ    15396588. AND WROTE    15487395. INTEGRALS IN    465 RECORDS. CPU TIME:     0.06 SEC, REAL TIME:     0.09 SEC

 Node minimum:     5160610.  Node maximum:     5164320. integrals

 OPERATOR DM      FOR CENTER  0  COORDINATES:    0.000000    0.000000    0.000000


 **********************************************************************************************************************************
 DATASETS  * FILE   NREC   LENGTH (MB)   RECORD NAMES
              1      18        3.17       500      610      700      900      950      970     1000      129      960     1100   
                                          VAR    BASINP    GEOM    SYMINP    ZMAT    AOBASIS   BASIS     P2S    ABASIS      S 
                                         1400     1410     1200     1210     1080     1600     1650     1700   
                                           T        V       H0       H01     AOSYM     SMH    MOLCAS    OPER   

 PROGRAMS   *        TOTAL       INT
 CPU TIMES  *         0.80      0.73
 REAL TIME  *         1.21 SEC
 DISK USED  *       306.06 MB      
 GA USED    *         0.00 MB       (max)       0.00 MB       (current)
 **********************************************************************************************************************************

1PROGRAM * RHF-SCF (OPEN SHELL)       Authors: W. Meyer, H.-J. Werner


 NUMBER OF ELECTRONS:      21+   20-    SPACE SYMMETRY=1    SPIN SYMMETRY: Doublet 
 CONVERGENCE THRESHOLDS:    1.00E-10 (Density)    1.00E-11 (Energy)
 MAX. NUMBER OF ITERATIONS:      200
 INTERPOLATION TYPE:            DIIS
 INTERPOLATION STEPS:              2 (START)      1 (STEP)
 LEVEL SHIFTS:                 -0.30 (CLOSED)  0.00 (OPEN) 



 Orbital guess generated from atomic densities. Full valence occupancy:   32

 Molecular orbital dump at record        2100.2

 ITERATION    DDIFF          GRAD             ENERGY        2-EL.EN.            DIPOLE MOMENTS         DIIS
    1      0.000D+00      0.000D+00      -267.17823422    555.843030    0.57192    0.04945   -0.74938    0
    2      0.000D+00      0.617D-02      -267.24889921    555.760421    0.41427   -0.13112   -0.59854    1
    3      0.927D-02      0.214D-02      -267.26107638    555.679079    0.39364   -0.05929   -0.62573    2
    4      0.336D-02      0.912D-03      -267.26468414    555.831150    0.37882   -0.09947   -0.64207    3
    5      0.186D-02      0.363D-03      -267.26525318    555.802430    0.38127   -0.09299   -0.63501    4
    6      0.792D-03      0.110D-03      -267.26532955    555.788723    0.37951   -0.09279   -0.63774    5
    7      0.277D-03      0.511D-04      -267.26534965    555.785716    0.37879   -0.09253   -0.63722    6
    8      0.144D-03      0.272D-04      -267.26535570    555.783773    0.37906   -0.09265   -0.63743    7
    9      0.923D-04      0.115D-04      -267.26535661    555.784091    0.37924   -0.09260   -0.63719    8
   10      0.366D-04      0.501D-05      -267.26535677    555.784700    0.37950   -0.09262   -0.63726    9
   11      0.147D-04      0.196D-05      -267.26535680    555.784542    0.37955   -0.09261   -0.63726    9
   12      0.650D-05      0.670D-06      -267.26535680    555.784676    0.37957   -0.09261   -0.63726    9
   13      0.227D-05      0.226D-06      -267.26535680    555.784591    0.37958   -0.09261   -0.63726    9
   14      0.632D-06      0.758D-07      -267.26535680    555.784600    0.37958   -0.09262   -0.63726    9
   15      0.193D-06      0.301D-07      -267.26535680    555.784596    0.37958   -0.09262   -0.63726    9
   16      0.826D-07      0.145D-07      -267.26535680    555.784598    0.37958   -0.09262   -0.63726    9
   17      0.375D-07      0.752D-08      -267.26535680    555.784598    0.37958   -0.09262   -0.63726    9
   18      0.223D-07      0.342D-08      -267.26535680    555.784598    0.37958   -0.09262   -0.63726    9
   19      0.114D-07      0.133D-08      -267.26535680    555.784598    0.37958   -0.09262   -0.63726    9
   20      0.444D-08      0.567D-09      -267.26535680    555.784598    0.37958   -0.09262   -0.63726    9
   21      0.166D-08      0.287D-09      -267.26535680    555.784598    0.37958   -0.09262   -0.63726    9
   22      0.754D-09      0.162D-09      -267.26535680    555.784598    0.37958   -0.09262   -0.63726    9
   23      0.446D-09      0.796D-10      -267.26535680    555.784598    0.37958   -0.09262   -0.63726    9
   24      0.264D-09      0.317D-10      -267.26535680    555.784598    0.37958   -0.09262   -0.63726    9
   25      0.932D-10      0.129D-10      -267.26535680    555.784598    0.37958   -0.09262   -0.63726    0

 Final alpha occupancy:  21
 Final beta  occupancy:  20

 !RHF STATE 1.1 Energy               -267.265356798881
 Nuclear energy                       183.23297885
 One-electron energy                 -728.39063461
 Two-electron energy                  277.89229896
 Virial quotient                       -1.00155919
 !RHF STATE 1.1 Dipole moment           0.37957869    -0.09261555    -0.63725582
 Dipole moment /Debye                   0.96472962    -0.23538982    -1.61963664

 Orbital energies:

         1.1          2.1          3.1          4.1          5.1          6.1          7.1          8.1          9.1         10.1
    -20.630465   -20.628784   -11.279224   -11.238083   -11.232174    -1.470167    -1.240766    -1.023280    -0.945289    -0.768394

        11.1         12.1         13.1         14.1         15.1         16.1         17.1         18.1         19.1         20.1
     -0.704603    -0.643086    -0.626734    -0.588803    -0.545143    -0.543359    -0.538718    -0.516963    -0.492982    -0.469858

        21.1         22.1         23.1
     -0.352286     0.181272     0.183485


 **********************************************************************************************************************************
 DATASETS  * FILE   NREC   LENGTH (MB)   RECORD NAMES
              1      18        3.17       500      610      700      900      950      970     1000      129      960     1100   
                                          VAR    BASINP    GEOM    SYMINP    ZMAT    AOBASIS   BASIS     P2S    ABASIS      S 
                                         1400     1410     1200     1210     1080     1600     1650     1700   
                                           T        V       H0       H01     AOSYM     SMH    MOLCAS    OPER   

              2       3        0.77       700     1000     2100   
                                         GEOM     BASIS     RHF  

 PROGRAMS   *        TOTAL       RHF       INT
 CPU TIMES  *         1.69      0.89      0.73
 REAL TIME  *         2.23 SEC
 DISK USED  *       322.62 MB      
 SF USED    *         0.04 MB      
 GA USED    *         0.00 MB       (max)       0.00 MB       (current)
 **********************************************************************************************************************************


1PROGRAM * CCSD (Unrestricted open-shell coupled cluster)     Authors: C. Hampel, H.-J. Werner, 1991, M. Deegan, P.J. Knowles, 1992


 Convergence thresholds:  THRVAR = 1.00D-08  THRDEN = 1.00D-10

 CCSD(T)     terms to be evaluated (factor= 1.000)


 Number of core orbitals:           5 (   5 )
 Number of closed-shell orbitals:  15 (  15 )
 Number of active  orbitals:        1 (   1 )
 Number of external orbitals:      84 (  84 )

 Memory could be reduced to 24.91 Mwords without degradation in triples

 Number of N-1 electron functions:              31
 Number of N-2 electron functions:             465
 Number of singly external CSFs:              2635
 Number of doubly external CSFs:           2537250
 Total number of CSFs:                     2539885

 Molecular orbitals read from record     2100.2  Type=RHF/CANONICAL (state 1.1)

 Integral transformation finished. Total CPU:   0.69 sec, npass=  1  Memory used:  12.63 MW

 Starting RMP2 calculation

 ITER.      SQ.NORM     CORR.ENERGY   TOTAL ENERGY   ENERGY CHANGE        DEN1      VAR(S)    VAR(P)  DIIS     TIME
   1      1.24305319    -0.78640430  -268.05176110    -0.78640430    -0.00305035  0.20D-04  0.11D-02  1  1     0.94
   2      1.24569536    -0.78969391  -268.05505071    -0.00328961    -0.00000475  0.54D-06  0.19D-05  2  2     1.18
   3      1.24576095    -0.78973600  -268.05509280    -0.00004209    -0.00000003  0.16D-07  0.68D-08  3  3     1.44
   4      1.24576191    -0.78973600  -268.05509280    -0.00000000    -0.00000000  0.27D-09  0.38D-10  4  4     1.72
   5      1.24576199    -0.78973603  -268.05509283    -0.00000003    -0.00000000  0.25D-11  0.65D-12  5  5     2.03
   6      1.24576200    -0.78973604  -268.05509284    -0.00000001    -0.00000000  0.28D-13  0.87D-14  6  6     2.35
   7      1.24576200    -0.78973604  -268.05509284     0.00000000    -0.00000000  0.47D-15  0.12D-15  6  1     2.68
   8      1.24576200    -0.78973604  -268.05509284     0.00000000    -0.00000000  0.60D-17  0.13D-17  6  2     3.01

 Norm of t1 vector:      0.03893199      S-energy:    -0.00227159      T1 diagnostic:  0.00055049
 Norm of t2 vector:      0.49421281      P-energy:    -0.78746445
                                         Alpha-Beta:  -0.59343768
                                         Alpha-Alpha: -0.10094400
                                         Beta-Beta:   -0.09308277

 Spin contamination <S**2-Sz**2-Sz>     0.00104008
  Reference energy                   -267.265356798882
  RHF-RMP2 correlation energy          -0.789736036733
 !RHF-RMP2 energy                    -268.055092835615

 Starting UCCSD calculation

 ITER.      SQ.NORM     CORR.ENERGY   TOTAL ENERGY   ENERGY CHANGE        DEN1      VAR(S)    VAR(P)  DIIS     TIME
   1      1.26282927    -0.80907166  -268.07442846    -0.80907166    -0.02515981  0.38D-02  0.59D-02  1  1     7.62
   2      1.29161194    -0.83648510  -268.10184190    -0.02741345    -0.00201179  0.22D-03  0.66D-03  2  2    12.22
   3      1.30155748    -0.84098512  -268.10634192    -0.00450001    -0.00032469  0.19D-03  0.56D-04  3  3    16.84
   4      1.30647183    -0.84246273  -268.10781953    -0.00147761    -0.00007208  0.43D-04  0.14D-04  4  4    21.49
   5      1.30920130    -0.84285087  -268.10820767    -0.00038815    -0.00002366  0.19D-04  0.32D-05  5  5    26.13
   6      1.31113957    -0.84305529  -268.10841208    -0.00020441    -0.00000645  0.42D-05  0.12D-05  6  6    30.81
   7      1.31208838    -0.84311404  -268.10847084    -0.00005876    -0.00000208  0.14D-05  0.37D-06  6  2    35.52
   8      1.31252965    -0.84315671  -268.10851350    -0.00004266    -0.00000065  0.45D-06  0.11D-06  6  1    40.22
   9      1.31271467    -0.84316128  -268.10851808    -0.00000458    -0.00000022  0.15D-06  0.35D-07  6  4    44.91
  10      1.31277778    -0.84316421  -268.10852101    -0.00000293    -0.00000005  0.35D-07  0.95D-08  6  3    49.60
  11      1.31280724    -0.84316295  -268.10851975     0.00000126    -0.00000002  0.13D-07  0.28D-08  6  5    54.28
  12      1.31281760    -0.84316269  -268.10851949     0.00000026    -0.00000000  0.26D-08  0.95D-09  6  6    58.97
  13      1.31281646    -0.84316177  -268.10851857     0.00000092    -0.00000000  0.96D-09  0.28D-09  6  2    63.65
  14      1.31281126    -0.84316093  -268.10851773     0.00000084    -0.00000000  0.21D-09  0.67D-10  6  1    68.35
  15      1.31280719    -0.84316034  -268.10851714     0.00000059    -0.00000000  0.78D-10  0.19D-10  6  4    73.04
  16      1.31280401    -0.84315996  -268.10851676     0.00000038    -0.00000000  0.28D-10  0.63D-11  6  3    77.75
  17      1.31280181    -0.84315972  -268.10851652     0.00000024    -0.00000000  0.10D-10  0.24D-11  6  5    82.43
  18      1.31280090    -0.84315966  -268.10851646     0.00000006    -0.00000000  0.41D-11  0.87D-12  6  6    87.12
  19      1.31280029    -0.84315963  -268.10851643     0.00000003    -0.00000000  0.16D-11  0.37D-12  6  2    91.81
  20      1.31279997    -0.84315962  -268.10851641     0.00000001    -0.00000000  0.60D-12  0.13D-12  6  1    96.50
  21      1.31279981    -0.84315960  -268.10851640     0.00000001    -0.00000000  0.28D-12  0.58D-13  6  4   101.19
  22      1.31279969    -0.84315960  -268.10851640     0.00000001    -0.00000000  0.74D-13  0.21D-13  6  3   105.88
  23      1.31279963    -0.84315959  -268.10851639     0.00000000    -0.00000000  0.21D-13  0.63D-14  6  5   110.60
  24      1.31279963    -0.84315959  -268.10851639    -0.00000000    -0.00000000  0.67D-14  0.23D-14  6  6   115.29
  25      1.31279963    -0.84315960  -268.10851639    -0.00000000    -0.00000000  0.21D-14  0.52D-15  6  2   119.99
  26      1.31279964    -0.84315960  -268.10851640    -0.00000000    -0.00000000  0.77D-15  0.15D-15  6  1   124.66
  27      1.31279965    -0.84315960  -268.10851640    -0.00000000    -0.00000000  0.20D-15  0.62D-16  6  3   129.36
  28      1.31279965    -0.84315960  -268.10851640    -0.00000000    -0.00000000  0.30D-16  0.11D-16  6  4   134.06
  29      1.31279965    -0.84315960  -268.10851640    -0.00000000    -0.00000000  0.71D-17  0.29D-17  6  5   138.75
  30      1.31279965    -0.84315960  -268.10851640    -0.00000000    -0.00000000  0.15D-17  0.54D-18  6  6   143.46
  31      1.31279966    -0.84315960  -268.10851640    -0.00000000    -0.00000000  0.35D-18  0.10D-18  6  2   148.15

 Norm of t1 vector:      0.13871386      S-energy:    -0.00282103      T1 diagnostic:  0.01616916
                                                                       D1 diagnostic:  0.06282099
 Norm of t2 vector:      0.54181004      P-energy:    -0.84033857
                                         Alpha-Beta:  -0.66489146
                                         Alpha-Alpha: -0.09147472
                                         Beta-Beta:   -0.08397239

 Spin contamination <S**2-Sz**2-Sz>     0.00217054

 Memory could be reduced to 28.85 Mwords without degradation in triples
 

 RESULTS
 =======

  Reference energy                   -267.265356798882
  UCCSD singles energy                 -0.002821031988
  UCCSD pair energy                    -0.840338565626
  UCCSD correlation energy             -0.843159597615
  Triples (T) contribution             -0.024978888592
  Total correlation energy             -0.868138486207
 
  RHF-UCCSD energy                   -268.108516396497
  RHF-UCCSD[T] energy                -268.134831241312
  RHF-UCCSD-T energy                 -268.133073755770
 !RHF-UCCSD(T) energy                -268.133495285089

 Program statistics:

 Available memory in ccsd:               999997692
 Min. memory needed in ccsd:               7337057
 Max. memory used in ccsd:                10523002
 Max. memory used in cckext:              10867977 (31 integral passes)
 Max. memory used in cckint:              12633073 ( 1 integral passes)



 **********************************************************************************************************************************
 DATASETS  * FILE   NREC   LENGTH (MB)   RECORD NAMES
              1      18        3.17       500      610      700      900      950      970     1000      129      960     1100   
                                          VAR    BASINP    GEOM    SYMINP    ZMAT    AOBASIS   BASIS     P2S    ABASIS      S 
                                         1400     1410     1200     1210     1080     1600     1650     1700   
                                           T        V       H0       H01     AOSYM     SMH    MOLCAS    OPER   

              2       3        0.77       700     1000     2100   
                                         GEOM     BASIS     RHF  

 PROGRAMS   *        TOTAL  UCCSD(T)       RHF       INT
 CPU TIMES  *       185.74    184.05      0.89      0.73
 REAL TIME  *       194.74 SEC
 DISK USED  *         1.29 GB      
 SF USED    *       553.73 MB      
 GA USED    *         0.00 MB       (max)       0.00 MB       (current)
 **********************************************************************************************************************************

        UCCSD(T)        RHF-SCF 
   -268.13349529   -267.26535680
 **********************************************************************************************************************************
 Variable memory released
