
 Primary working directories    : /tmp/320938.605.gen6.q
 Secondary working directories  : /tmp/320938.605.gen6.q
 Wavefunction directory         : /home/vulcan/mel64643/wfu/
 Main file repository           : /tmp/320938.605.gen6.q/

 ARCHNAME  : Linux/x86_64
 FC        : /opt/intel/compilers_and_libraries_2016.1.150/linux/bin/intel64/ifort
 FCVERSION : 16.0.1
 BLASLIB   : -mkl
 id        : ccgc

 Nodes     nprocs
 n076         3
 Number of processes for MPI-2 version of Molpro:   nprocs(total)=    4   nprocs(compute)=    3   nprocs(helper)=    1
 ga_uses_ma=false, calling ma_init with nominal heap.
 GA-space will be limited to   8.0 MW (determined by -G option)

 Using customized tuning parameters: mindgm=10; mindgv=16; mindgc=4; mindgr=1; noblas=0; mincuda=1000; minvec=7
 default implementation of scratch files=sf  

 ***,Frequencies for min3
 memory,1000,m
 gthresh,energy=1.0d-10,orbital=1.0d-10,oneint=1.0d-16,twoint=1.0d-16,optgrad=1.0d-6,compress=1.0d-13
 geomtyp=xyz
 
  geometry = {
  12
  arbitrary comment
     C    1.776964391707    0.711398808326   -0.047331391796
     C    0.491811976407   -0.059992870174   -0.196493901896
     C    0.450332819107   -1.536294019674    0.101417522804
     O   -0.560767745493    0.727234937526    0.254453964104
     O   -1.837840335593    0.092269037726   -0.120531795196
     H    2.585373063107    0.213706752431   -0.611492437628
     H    1.660863214809    1.742233884566   -0.426776314142
     H    2.095355673079    0.775457285707    1.017644187988
     H   -0.505452579906   -1.983319416327   -0.219998077328
     H    1.281265985815   -2.048816912632   -0.417145822325
     H    0.561418988454   -1.720358468421    1.194787628043
     H   -1.987140736908    0.551184879358   -0.966836238878
  }
 
 basis=cc-pvdz
 {rhf;maxit,200}
 {uccsd(t);maxit,200}

 Variables initialized (661), CPU time= 0.00 sec
 Commands  initialized (458), CPU time= 0.01 sec, 486 directives.
 Default parameters read. Elapsed time= 0.06 sec

 Checking input...
 Passed
1


                                         ***  PROGRAM SYSTEM MOLPRO  ***
                         Copyright, University College Cardiff Consultants Limited, 2008

                                    Version 2010.1 linked May 16 2016 07:17:05


 **********************************************************************************************************************************
 LABEL *   Frequencies for min3                                                          
 Linux-4.4.3/n076(x86_64) 64 bit mpp version                                             DATE: 07-Mar-20          TIME: 04:31:34  
 **********************************************************************************************************************************

 SHA1:             9e8077add272b0f3cad6f7df79ec5211205f459d
 **********************************************************************************************************************************

 THRESHOLDS:

 ZERO    =  1.00D-12  ONEINT  =  1.00D-16  TWOINT  =  1.00D-16  PREFAC  =  1.00D-14  LOCALI  =  1.00D-09  EORDER  =  1.00D-04
 ENERGY  =  1.00D-10  ETEST   =  0.00D+00  EDENS   =  0.00D+00  THRDEDEF=  1.00D-06  GRADIENT=  1.00D-02  STEP    =  1.00D-03
 ORBITAL =  1.00D-10  CIVEC   =  1.00D-05  COEFF   =  1.00D-04  PRINTCI =  5.00D-02  PUNCHCI =  9.90D+01  OPTGRAD =  1.00D-06
 OPTENERG=  1.00D-06  OPTSTEP =  3.00D-04  THRGRAD =  1.00D-10  COMPRESS=  1.00D-13  VARMIN  =  1.00D-07  VARMAX  =  1.00D-03
 THRDOUB =  0.00D+00  THRDIV  =  1.00D-05  THRRED  =  1.00D-07  THRPSP  =  1.00D+00  THRDC   =  1.00D-10  THRCS   =  1.00D-10
 THRNRM  =  1.00D-08  THREQ   =  0.00D+00  THRDE   =  1.00D+00  THRREF  =  1.00D-05  SPARFAC =  1.00D+00  THRDLP  =  1.00D-07
 THRDIA  =  1.00D-10  THRDLS  =  1.00D-07  THRGPS  =  0.00D+00  THRKEX  =  0.00D+00  THRDIS  =  2.00D-01  THRVAR  =  1.00D-10
 THRLOC  =  1.00D-06  THRGAP  =  1.00D-06  THRLOCT = -1.00D+00  THRGAPT = -1.00D+00  THRORB  =  1.00D-06  THRMLTP =  0.00D+00
 THRCPQCI=  1.00D-10  KEXTA   =  0.00D+00  THRCOARS=  0.00D+00  SYMTOL  =  1.00D-06  GRADTOL =  1.00D-06  THROVL  =  1.00D-08
 THRORTH =  1.00D-08  GRID    =  1.00D-06  GRIDMAX =  1.00D-03  DTMAX   =  0.00D+00

 SETTING GEOMTYP        =    XYZ

 Variable memory set to 1000000000 words,  buffer space   230000 words

 SETTING BASIS          =    CC-PVDZ


 Recomputing integrals since basis changed


 Using spherical harmonics

 Library entry C      S cc-pVDZ              selected for orbital group  1
 Library entry C      P cc-pVDZ              selected for orbital group  1
 Library entry C      D cc-pVDZ              selected for orbital group  1
 Library entry O      S cc-pVDZ              selected for orbital group  2
 Library entry O      P cc-pVDZ              selected for orbital group  2
 Library entry O      D cc-pVDZ              selected for orbital group  2
 Library entry H      S cc-pVDZ              selected for orbital group  3
 Library entry H      P cc-pVDZ              selected for orbital group  3

1PROGRAM * SEWARD (Integral evaluation for generally contracted gaussian basis sets)     Author: Roland Lindh, 1990

 Geometry written to block  1 of record 700


 Point group  C1  



 ATOMIC COORDINATES

 NR  ATOM    CHARGE       X              Y              Z

   1  C       6.00    3.357976046    1.344348918   -0.089443368
   2  C       6.00    0.929389944   -0.113370094   -0.371319661
   3  C       6.00    0.851005696   -2.903174955    0.191651343
   4  O       8.00   -1.059697462    1.374274865    0.480848305
   5  O       8.00   -3.473014908    0.174363212   -0.227772083
   6  H       1.00    4.885647037    0.403847235   -1.155553239
   7  H       1.00    3.138576618    3.292344899   -0.806490353
   8  H       1.00    3.959648370    1.465401897    1.923068815
   9  H       1.00   -0.955166948   -3.747930528   -0.415736116
  10  H       1.00    2.421241815   -3.871702858   -0.788291361
  11  H       1.00    1.060928133   -3.251006353    2.257821402
  12  H       1.00   -3.755151777    1.041588470   -1.827055705

 Bond lengths in Bohr (Angstrom)

 1-2  2.846476668  1-6  2.086842670  1-7  2.087338216  1-8  2.104012522  2-3  2.847119878
     ( 1.506290578)     ( 1.104309580)     ( 1.104571812)     ( 1.113395474)     ( 1.506630951)

  2- 4  2.625975338   3- 9  2.084416255   3-10  2.089013038   3-11  2.105733322   4- 5  2.786760112
       ( 1.389606300)       ( 1.103025576)       ( 1.105458089)       ( 1.114306082)       ( 1.474689938)

  5-12  1.841029322
       ( 0.974230759)

 Bond angles

  1-2-3  120.37866573   1-2-4  108.90555081   2-1-6  110.07116632   2-1-7  110.74629322

  2- 1- 8  111.60254663   2- 3- 9  111.30614089   2- 3-10  109.92845642   2- 3-11  110.67897603

  2- 4- 5  109.23946113   3- 2- 4  118.03986083   4- 5-12   98.67212304   6- 1- 7  108.78667071

  6- 1- 8  107.77290287   7- 1- 8  107.75497195   9- 3-10  109.07096340   9- 3-11  107.77976551

 10- 3-11  107.98466003

 NUCLEAR CHARGE:                   41
 NUMBER OF PRIMITIVE AOS:         184
 NUMBER OF SYMMETRY AOS:          179
 NUMBER OF CONTRACTIONS:          105   ( 105A   )
 NUMBER OF CORE ORBITALS:           5   (   5A   )
 NUMBER OF VALENCE ORBITALS:       27   (  27A   )


 NUCLEAR REPULSION ENERGY  183.21953637


 Eigenvalues of metric

         1 0.345E-02 0.435E-02 0.105E-01 0.141E-01 0.182E-01 0.214E-01 0.331E-01 0.345E-01


 Contracted 2-electron integrals neglected if value below      1.0D-16
 AO integral compression algorithm  1   Integral accuracy      1.0D-16

     127.402 MB (compressed) written to integral file ( 93.4%)

     Node minimum: 40.894 MB, node maximum: 43.516 MB


 NUMBER OF SORTED TWO-ELECTRON INTEGRALS:    5164320.     BUFFER LENGTH:  32768
 NUMBER OF SEGMENTS:   1  SEGMENT LENGTH:    5164320      RECORD LENGTH: 524288

 Memory used in sort:       5.72 MW

 SORT1 READ    17075251. AND WROTE     5135933. INTEGRALS IN     15 RECORDS. CPU TIME:     0.20 SEC, REAL TIME:     0.23 SEC
 SORT2 READ    15396699. AND WROTE    15487395. INTEGRALS IN    498 RECORDS. CPU TIME:     0.05 SEC, REAL TIME:     0.09 SEC

 Node minimum:     5160610.  Node maximum:     5164320. integrals

 OPERATOR DM      FOR CENTER  0  COORDINATES:    0.000000    0.000000    0.000000


 **********************************************************************************************************************************
 DATASETS  * FILE   NREC   LENGTH (MB)   RECORD NAMES
              1      18        3.17       500      610      700      900      950      970     1000      129      960     1100   
                                          VAR    BASINP    GEOM    SYMINP    ZMAT    AOBASIS   BASIS     P2S    ABASIS      S 
                                         1400     1410     1200     1210     1080     1600     1650     1700   
                                           T        V       H0       H01     AOSYM     SMH    MOLCAS    OPER   

 PROGRAMS   *        TOTAL       INT
 CPU TIMES  *         0.82      0.74
 REAL TIME  *         1.23 SEC
 DISK USED  *       305.44 MB      
 GA USED    *         0.00 MB       (max)       0.00 MB       (current)
 **********************************************************************************************************************************

1PROGRAM * RHF-SCF (OPEN SHELL)       Authors: W. Meyer, H.-J. Werner


 NUMBER OF ELECTRONS:      21+   20-    SPACE SYMMETRY=1    SPIN SYMMETRY: Doublet 
 CONVERGENCE THRESHOLDS:    1.00E-10 (Density)    1.00E-11 (Energy)
 MAX. NUMBER OF ITERATIONS:      200
 INTERPOLATION TYPE:            DIIS
 INTERPOLATION STEPS:              2 (START)      1 (STEP)
 LEVEL SHIFTS:                 -0.30 (CLOSED)  0.00 (OPEN) 



 Orbital guess generated from atomic densities. Full valence occupancy:   32

 Molecular orbital dump at record        2100.2

 ITERATION    DDIFF          GRAD             ENERGY        2-EL.EN.            DIPOLE MOMENTS         DIIS
    1      0.000D+00      0.000D+00      -267.17824220    555.809479    0.56987    0.04972   -0.74923    0
    2      0.000D+00      0.617D-02      -267.24892841    555.732768    0.41458   -0.13094   -0.59880    1
    3      0.928D-02      0.214D-02      -267.26110430    555.650134    0.39434   -0.05890   -0.62618    2
    4      0.336D-02      0.912D-03      -267.26471368    555.802525    0.37979   -0.09903   -0.64264    3
    5      0.186D-02      0.364D-03      -267.26528307    555.773885    0.38235   -0.09253   -0.63562    4
    6      0.793D-03      0.110D-03      -267.26535954    555.760099    0.38060   -0.09232   -0.63836    5
    7      0.277D-03      0.511D-04      -267.26537969    555.757090    0.37989   -0.09206   -0.63786    6
    8      0.144D-03      0.273D-04      -267.26538576    555.755137    0.38016   -0.09217   -0.63807    7
    9      0.925D-04      0.115D-04      -267.26538668    555.755454    0.38034   -0.09213   -0.63783    8
   10      0.366D-04      0.501D-05      -267.26538683    555.756065    0.38060   -0.09214   -0.63789    9
   11      0.146D-04      0.196D-05      -267.26538686    555.755907    0.38065   -0.09214   -0.63790    9
   12      0.651D-05      0.670D-06      -267.26538686    555.756042    0.38067   -0.09214   -0.63789    9
   13      0.227D-05      0.226D-06      -267.26538686    555.755957    0.38067   -0.09214   -0.63789    9
   14      0.632D-06      0.758D-07      -267.26538686    555.755966    0.38067   -0.09214   -0.63789    9
   15      0.193D-06      0.301D-07      -267.26538686    555.755962    0.38067   -0.09214   -0.63789    9
   16      0.826D-07      0.145D-07      -267.26538686    555.755964    0.38067   -0.09214   -0.63789    9
   17      0.375D-07      0.752D-08      -267.26538686    555.755964    0.38067   -0.09214   -0.63789    9
   18      0.223D-07      0.342D-08      -267.26538686    555.755964    0.38067   -0.09214   -0.63789    9
   19      0.114D-07      0.133D-08      -267.26538686    555.755964    0.38067   -0.09214   -0.63789    9
   20      0.444D-08      0.568D-09      -267.26538686    555.755964    0.38067   -0.09214   -0.63789    9
   21      0.166D-08      0.287D-09      -267.26538686    555.755964    0.38067   -0.09214   -0.63789    9
   22      0.755D-09      0.162D-09      -267.26538686    555.755964    0.38067   -0.09214   -0.63789    9
   23      0.446D-09      0.797D-10      -267.26538686    555.755964    0.38067   -0.09214   -0.63789    9
   24      0.264D-09      0.317D-10      -267.26538686    555.755964    0.38067   -0.09214   -0.63789    9
   25      0.933D-10      0.129D-10      -267.26538686    555.755964    0.38067   -0.09214   -0.63789    0

 Final alpha occupancy:  21
 Final beta  occupancy:  20

 !RHF STATE 1.1 Energy               -267.265386864017
 Nuclear energy                       183.21953637
 One-electron energy                 -728.36290508
 Two-electron energy                  277.87798185
 Virial quotient                       -1.00155385
 !RHF STATE 1.1 Dipole moment           0.38067459    -0.09214209    -0.63789009
 Dipole moment /Debye                   0.96751491    -0.23418650    -1.62124869

 Orbital energies:

         1.1          2.1          3.1          4.1          5.1          6.1          7.1          8.1          9.1         10.1
    -20.630497   -20.628846   -11.279346   -11.237723   -11.232299    -1.470235    -1.240765    -1.023174    -0.945371    -0.768550

        11.1         12.1         13.1         14.1         15.1         16.1         17.1         18.1         19.1         20.1
     -0.704665    -0.643049    -0.626813    -0.588755    -0.545029    -0.543311    -0.539119    -0.516840    -0.493056    -0.469845

        21.1         22.1         23.1
     -0.352365     0.181301     0.183612


 **********************************************************************************************************************************
 DATASETS  * FILE   NREC   LENGTH (MB)   RECORD NAMES
              1      18        3.17       500      610      700      900      950      970     1000      129      960     1100   
                                          VAR    BASINP    GEOM    SYMINP    ZMAT    AOBASIS   BASIS     P2S    ABASIS      S 
                                         1400     1410     1200     1210     1080     1600     1650     1700   
                                           T        V       H0       H01     AOSYM     SMH    MOLCAS    OPER   

              2       3        0.77       700     1000     2100   
                                         GEOM     BASIS     RHF  

 PROGRAMS   *        TOTAL       RHF       INT
 CPU TIMES  *         1.71      0.89      0.74
 REAL TIME  *         2.24 SEC
 DISK USED  *       322.01 MB      
 SF USED    *         0.04 MB      
 GA USED    *         0.00 MB       (max)       0.00 MB       (current)
 **********************************************************************************************************************************


1PROGRAM * CCSD (Unrestricted open-shell coupled cluster)     Authors: C. Hampel, H.-J. Werner, 1991, M. Deegan, P.J. Knowles, 1992


 Convergence thresholds:  THRVAR = 1.00D-08  THRDEN = 1.00D-10

 CCSD(T)     terms to be evaluated (factor= 1.000)


 Number of core orbitals:           5 (   5 )
 Number of closed-shell orbitals:  15 (  15 )
 Number of active  orbitals:        1 (   1 )
 Number of external orbitals:      84 (  84 )

 Memory could be reduced to 24.91 Mwords without degradation in triples

 Number of N-1 electron functions:              31
 Number of N-2 electron functions:             465
 Number of singly external CSFs:              2635
 Number of doubly external CSFs:           2537250
 Total number of CSFs:                     2539885

 Molecular orbitals read from record     2100.2  Type=RHF/CANONICAL (state 1.1)

 Integral transformation finished. Total CPU:   0.92 sec, npass=  1  Memory used:  12.63 MW

 Starting RMP2 calculation

 ITER.      SQ.NORM     CORR.ENERGY   TOTAL ENERGY   ENERGY CHANGE        DEN1      VAR(S)    VAR(P)  DIIS     TIME
   1      1.24303141    -0.78638036  -268.05176723    -0.78638036    -0.00304987  0.20D-04  0.11D-02  1  1     1.25
   2      1.24567295    -0.78966944  -268.05505631    -0.00328908    -0.00000475  0.54D-06  0.19D-05  2  2     1.53
   3      1.24573852    -0.78971152  -268.05509838    -0.00004207    -0.00000003  0.16D-07  0.68D-08  3  3     1.82
   4      1.24573947    -0.78971152  -268.05509838    -0.00000000    -0.00000000  0.27D-09  0.38D-10  4  4     2.14
   5      1.24573955    -0.78971155  -268.05509842    -0.00000003    -0.00000000  0.25D-11  0.65D-12  5  5     2.48
   6      1.24573957    -0.78971156  -268.05509842    -0.00000001    -0.00000000  0.28D-13  0.87D-14  6  6     2.84
   7      1.24573957    -0.78971156  -268.05509842     0.00000000    -0.00000000  0.47D-15  0.12D-15  6  1     3.21
   8      1.24573957    -0.78971156  -268.05509842     0.00000000    -0.00000000  0.59D-17  0.13D-17  6  2     3.57

 Norm of t1 vector:      0.03893412      S-energy:    -0.00227171      T1 diagnostic:  0.00055041
 Norm of t2 vector:      0.49418994      P-energy:    -0.78743984
                                         Alpha-Beta:  -0.59341833
                                         Alpha-Alpha: -0.10094109
                                         Beta-Beta:   -0.09308042

 Spin contamination <S**2-Sz**2-Sz>     0.00104040
  Reference energy                   -267.265386864016
  RHF-RMP2 correlation energy          -0.789711558339
 !RHF-RMP2 energy                    -268.055098422355

 Starting UCCSD calculation

 ITER.      SQ.NORM     CORR.ENERGY   TOTAL ENERGY   ENERGY CHANGE        DEN1      VAR(S)    VAR(P)  DIIS     TIME
   1      1.26280431    -0.80905002  -268.07443689    -0.80905002    -0.02515693  0.38D-02  0.59D-02  1  1     9.82
   2      1.29157967    -0.83645956  -268.10184642    -0.02740953    -0.00201146  0.22D-03  0.66D-03  2  2    16.04
   3      1.30152260    -0.84095813  -268.10634500    -0.00449858    -0.00032472  0.19D-03  0.56D-04  3  3    22.29
   4      1.30643722    -0.84243563  -268.10782249    -0.00147749    -0.00007210  0.43D-04  0.14D-04  4  4    28.03
   5      1.30916776    -0.84282384  -268.10821070    -0.00038821    -0.00002367  0.19D-04  0.32D-05  5  5    33.55
   6      1.31110692    -0.84302835  -268.10841521    -0.00020451    -0.00000645  0.42D-05  0.12D-05  6  6    39.11
   7      1.31205573    -0.84308710  -268.10847397    -0.00005876    -0.00000208  0.14D-05  0.37D-06  6  2    45.69
   8      1.31249683    -0.84312976  -268.10851662    -0.00004265    -0.00000065  0.45D-06  0.11D-06  6  1    51.98
   9      1.31268177    -0.84313433  -268.10852120    -0.00000458    -0.00000022  0.15D-06  0.35D-07  6  4    58.31
  10      1.31274485    -0.84313726  -268.10852413    -0.00000293    -0.00000005  0.35D-07  0.95D-08  6  3    64.62
  11      1.31277433    -0.84313600  -268.10852287     0.00000126    -0.00000002  0.13D-07  0.28D-08  6  5    70.94
  12      1.31278469    -0.84313574  -268.10852260     0.00000026    -0.00000000  0.26D-08  0.95D-09  6  6    77.28
  13      1.31278354    -0.84313482  -268.10852169     0.00000092    -0.00000000  0.96D-09  0.28D-09  6  2    83.61
  14      1.31277834    -0.84313398  -268.10852084     0.00000084    -0.00000000  0.21D-09  0.67D-10  6  1    89.93
  15      1.31277426    -0.84313339  -268.10852026     0.00000059    -0.00000000  0.78D-10  0.19D-10  6  4    96.25
  16      1.31277108    -0.84313301  -268.10851987     0.00000038    -0.00000000  0.28D-10  0.63D-11  6  3   102.55
  17      1.31276888    -0.84313277  -268.10851964     0.00000024    -0.00000000  0.10D-10  0.24D-11  6  5   108.30
  18      1.31276798    -0.84313271  -268.10851958     0.00000006    -0.00000000  0.41D-11  0.87D-12  6  6   113.76
  19      1.31276737    -0.84313268  -268.10851954     0.00000003    -0.00000000  0.16D-11  0.37D-12  6  2   119.32
  20      1.31276705    -0.84313267  -268.10851953     0.00000001    -0.00000000  0.60D-12  0.13D-12  6  1   124.86
  21      1.31276689    -0.84313266  -268.10851952     0.00000001    -0.00000000  0.28D-12  0.58D-13  6  4   130.40
  22      1.31276677    -0.84313265  -268.10851951     0.00000001    -0.00000000  0.73D-13  0.21D-13  6  3   135.96
  23      1.31276671    -0.84313264  -268.10851951     0.00000000    -0.00000000  0.21D-13  0.62D-14  6  5   141.50
  24      1.31276670    -0.84313264  -268.10851951    -0.00000000    -0.00000000  0.67D-14  0.22D-14  6  6   147.06
  25      1.31276671    -0.84313265  -268.10851951    -0.00000000    -0.00000000  0.21D-14  0.52D-15  6  2   152.62
  26      1.31276671    -0.84313265  -268.10851951    -0.00000000    -0.00000000  0.77D-15  0.15D-15  6  1   158.15
  27      1.31276672    -0.84313265  -268.10851951    -0.00000000    -0.00000000  0.20D-15  0.62D-16  6  3   163.68
  28      1.31276673    -0.84313265  -268.10851951    -0.00000000    -0.00000000  0.29D-16  0.11D-16  6  4   169.22
  29      1.31276673    -0.84313265  -268.10851951    -0.00000000    -0.00000000  0.70D-17  0.29D-17  6  5   174.80
  30      1.31276673    -0.84313265  -268.10851951    -0.00000000    -0.00000000  0.15D-17  0.54D-18  6  6   180.33
  31      1.31276673    -0.84313265  -268.10851951    -0.00000000    -0.00000000  0.35D-18  0.10D-18  6  2   185.68

 Norm of t1 vector:      0.13872270      S-energy:    -0.00282141      T1 diagnostic:  0.01617006
                                                                       D1 diagnostic:  0.06284410
 Norm of t2 vector:      0.54177739      P-energy:    -0.84031124
                                         Alpha-Beta:  -0.66486631
                                         Alpha-Alpha: -0.09147341
                                         Beta-Beta:   -0.08397153

 Spin contamination <S**2-Sz**2-Sz>     0.00217073

 Memory could be reduced to 28.85 Mwords without degradation in triples
 

 RESULTS
 =======

  Reference energy                   -267.265386864016
  UCCSD singles energy                 -0.002821405093
  UCCSD pair energy                    -0.840311243232
  UCCSD correlation energy             -0.843132648325
  Triples (T) contribution             -0.024976071427
  Total correlation energy             -0.868108719752
 
  RHF-UCCSD energy                   -268.108519512341
  RHF-UCCSD[T] energy                -268.134831763987
  RHF-UCCSD-T energy                 -268.133073996761
 !RHF-UCCSD(T) energy                -268.133495583769

 Program statistics:

 Available memory in ccsd:               999997692
 Min. memory needed in ccsd:               7337057
 Max. memory used in ccsd:                10523002
 Max. memory used in cckext:              10867977 (31 integral passes)
 Max. memory used in cckint:              12633073 ( 1 integral passes)



 **********************************************************************************************************************************
 DATASETS  * FILE   NREC   LENGTH (MB)   RECORD NAMES
              1      18        3.17       500      610      700      900      950      970     1000      129      960     1100   
                                          VAR    BASINP    GEOM    SYMINP    ZMAT    AOBASIS   BASIS     P2S    ABASIS      S 
                                         1400     1410     1200     1210     1080     1600     1650     1700   
                                           T        V       H0       H01     AOSYM     SMH    MOLCAS    OPER   

              2       3        0.77       700     1000     2100   
                                         GEOM     BASIS     RHF  

 PROGRAMS   *        TOTAL  UCCSD(T)       RHF       INT
 CPU TIMES  *       223.36    221.65      0.89      0.74
 REAL TIME  *       232.49 SEC
 DISK USED  *         1.29 GB      
 SF USED    *       553.73 MB      
 GA USED    *         0.00 MB       (max)       0.00 MB       (current)
 **********************************************************************************************************************************

        UCCSD(T)        RHF-SCF 
   -268.13349558   -267.26538686
 **********************************************************************************************************************************
 Variable memory released
