
 Primary working directories    : /tmp/320938.357.gen4.q
 Secondary working directories  : /tmp/320938.357.gen4.q
 Wavefunction directory         : /home/vulcan/mel64643/wfu/
 Main file repository           : /tmp/320938.357.gen4.q/

 ARCHNAME  : Linux/x86_64
 FC        : /opt/intel/compilers_and_libraries_2016.1.150/linux/bin/intel64/ifort
 FCVERSION : 16.0.1
 BLASLIB   : -mkl
 id        : ccgc

 Nodes     nprocs
 n066         3
 Number of processes for MPI-2 version of Molpro:   nprocs(total)=    4   nprocs(compute)=    3   nprocs(helper)=    1
 ga_uses_ma=false, calling ma_init with nominal heap.
 GA-space will be limited to   8.0 MW (determined by -G option)

 Using customized tuning parameters: mindgm=10; mindgv=16; mindgc=4; mindgr=1; noblas=0; mincuda=1000; minvec=7
 default implementation of scratch files=sf  

 ***,Frequencies for min3
 memory,1000,m
 gthresh,energy=1.0d-10,orbital=1.0d-10,oneint=1.0d-16,twoint=1.0d-16,optgrad=1.0d-6,compress=1.0d-13
 geomtyp=xyz
 
  geometry = {
  12
  arbitrary comment
     C    1.776964391707    0.711398808326   -0.047331391796
     C    0.491811976407   -0.059992870174   -0.196493901896
     C    0.450332819107   -1.536294019674    0.101417522804
     O   -0.560767745493    0.727234937526    0.254453964104
     O   -1.837840335593    0.092269037726   -0.120531795196
     H    2.585373063107    0.211465914126   -0.611440883996
     H    1.660426393907    1.742887987326   -0.424680639820
     H    2.095490300884    0.774278017338    1.016115057633
     H   -0.505060806899   -1.980588809854   -0.219772137797
     H    1.281768097871   -2.048177879282   -0.417156695242
     H    0.561965973139   -1.719374884110    1.194726682741
     H   -1.988279413560    0.549597659137   -0.967608457789
  }
 
 basis=cc-pvdz
 {rhf;maxit,200}
 {uccsd(t);maxit,200}

 Variables initialized (661), CPU time= 0.00 sec
 Commands  initialized (458), CPU time= 0.00 sec, 486 directives.
 Default parameters read. Elapsed time= 0.05 sec

 Checking input...
 Passed
1


                                         ***  PROGRAM SYSTEM MOLPRO  ***
                         Copyright, University College Cardiff Consultants Limited, 2008

                                    Version 2010.1 linked May 16 2016 07:17:05


 **********************************************************************************************************************************
 LABEL *   Frequencies for min3                                                          
 Linux-4.4.3/n066(x86_64) 64 bit mpp version                                             DATE: 07-Mar-20          TIME: 03:03:35  
 **********************************************************************************************************************************

 SHA1:             9e8077add272b0f3cad6f7df79ec5211205f459d
 **********************************************************************************************************************************

 THRESHOLDS:

 ZERO    =  1.00D-12  ONEINT  =  1.00D-16  TWOINT  =  1.00D-16  PREFAC  =  1.00D-14  LOCALI  =  1.00D-09  EORDER  =  1.00D-04
 ENERGY  =  1.00D-10  ETEST   =  0.00D+00  EDENS   =  0.00D+00  THRDEDEF=  1.00D-06  GRADIENT=  1.00D-02  STEP    =  1.00D-03
 ORBITAL =  1.00D-10  CIVEC   =  1.00D-05  COEFF   =  1.00D-04  PRINTCI =  5.00D-02  PUNCHCI =  9.90D+01  OPTGRAD =  1.00D-06
 OPTENERG=  1.00D-06  OPTSTEP =  3.00D-04  THRGRAD =  1.00D-10  COMPRESS=  1.00D-13  VARMIN  =  1.00D-07  VARMAX  =  1.00D-03
 THRDOUB =  0.00D+00  THRDIV  =  1.00D-05  THRRED  =  1.00D-07  THRPSP  =  1.00D+00  THRDC   =  1.00D-10  THRCS   =  1.00D-10
 THRNRM  =  1.00D-08  THREQ   =  0.00D+00  THRDE   =  1.00D+00  THRREF  =  1.00D-05  SPARFAC =  1.00D+00  THRDLP  =  1.00D-07
 THRDIA  =  1.00D-10  THRDLS  =  1.00D-07  THRGPS  =  0.00D+00  THRKEX  =  0.00D+00  THRDIS  =  2.00D-01  THRVAR  =  1.00D-10
 THRLOC  =  1.00D-06  THRGAP  =  1.00D-06  THRLOCT = -1.00D+00  THRGAPT = -1.00D+00  THRORB  =  1.00D-06  THRMLTP =  0.00D+00
 THRCPQCI=  1.00D-10  KEXTA   =  0.00D+00  THRCOARS=  0.00D+00  SYMTOL  =  1.00D-06  GRADTOL =  1.00D-06  THROVL  =  1.00D-08
 THRORTH =  1.00D-08  GRID    =  1.00D-06  GRIDMAX =  1.00D-03  DTMAX   =  0.00D+00

 SETTING GEOMTYP        =    XYZ

 Variable memory set to 1000000000 words,  buffer space   230000 words

 SETTING BASIS          =    CC-PVDZ


 Recomputing integrals since basis changed


 Using spherical harmonics

 Library entry C      S cc-pVDZ              selected for orbital group  1
 Library entry C      P cc-pVDZ              selected for orbital group  1
 Library entry C      D cc-pVDZ              selected for orbital group  1
 Library entry O      S cc-pVDZ              selected for orbital group  2
 Library entry O      P cc-pVDZ              selected for orbital group  2
 Library entry O      D cc-pVDZ              selected for orbital group  2
 Library entry H      S cc-pVDZ              selected for orbital group  3
 Library entry H      P cc-pVDZ              selected for orbital group  3

1PROGRAM * SEWARD (Integral evaluation for generally contracted gaussian basis sets)     Author: Roland Lindh, 1990

 Geometry written to block  1 of record 700


 Point group  C1  



 ATOMIC COORDINATES

 NR  ATOM    CHARGE       X              Y              Z

   1  C       6.00    3.357976046    1.344348918   -0.089443368
   2  C       6.00    0.929389944   -0.113370094   -0.371319661
   3  C       6.00    0.851005696   -2.903174955    0.191651343
   4  O       8.00   -1.059697462    1.374274865    0.480848305
   5  O       8.00   -3.473014908    0.174363212   -0.227772083
   6  H       1.00    4.885647037    0.399612664   -1.155455816
   7  H       1.00    3.137751146    3.293580974   -0.802530103
   8  H       1.00    3.959902780    1.463173402    1.920179177
   9  H       1.00   -0.954426605   -3.742770430   -0.415309152
  10  H       1.00    2.422190669   -3.870495260   -0.788311908
  11  H       1.00    1.061961784   -3.249147648    2.257706232
  12  H       1.00   -3.757303564    1.038589058   -1.828514988

 Bond lengths in Bohr (Angstrom)

 1-2  2.846476668  1-6  2.088704811  1-7  2.087222390  1-8  2.101194380  2-3  2.847119878
     ( 1.506290578)     ( 1.105294982)     ( 1.104510519)     ( 1.111904178)     ( 1.506630951)

  2- 4  2.625975338   3- 9  2.081563690   3-10  2.089176576   3-11  2.105417389   4- 5  2.786760112
       ( 1.389606300)       ( 1.101516064)       ( 1.105544630)       ( 1.114138898)       ( 1.474689938)

  5-12  1.841218130
       ( 0.974330671)

 Bond angles

  1-2-3  120.37866573   1-2-4  108.90555081   2-1-6  109.98947225   2-1-7  110.75691756

  2- 1- 8  111.59747914   2- 3- 9  111.18931754   2- 3-10  109.89143534   2- 3-11  110.62776297

  2- 4- 5  109.23946113   3- 2- 4  118.03986083   4- 5-12   98.78223482   6- 1- 7  108.97828868

  6- 1- 8  107.70906937   7- 1- 8  107.70812296   9- 3-10  109.19373866   9- 3-11  107.86420885

 10- 3-11  107.99043698

 NUCLEAR CHARGE:                   41
 NUMBER OF PRIMITIVE AOS:         184
 NUMBER OF SYMMETRY AOS:          179
 NUMBER OF CONTRACTIONS:          105   ( 105A   )
 NUMBER OF CORE ORBITALS:           5   (   5A   )
 NUMBER OF VALENCE ORBITALS:       27   (  27A   )


 NUCLEAR REPULSION ENERGY  183.23302205


 Eigenvalues of metric

         1 0.345E-02 0.435E-02 0.105E-01 0.141E-01 0.182E-01 0.214E-01 0.331E-01 0.345E-01


 Contracted 2-electron integrals neglected if value below      1.0D-16
 AO integral compression algorithm  1   Integral accuracy      1.0D-16

     127.402 MB (compressed) written to integral file ( 93.4%)

     Node minimum: 41.943 MB, node maximum: 42.729 MB


 NUMBER OF SORTED TWO-ELECTRON INTEGRALS:    5164320.     BUFFER LENGTH:  32768
 NUMBER OF SEGMENTS:   1  SEGMENT LENGTH:    5164320      RECORD LENGTH: 524288

 Memory used in sort:       5.72 MW

 SORT1 READ    17075548. AND WROTE     5135889. INTEGRALS IN     15 RECORDS. CPU TIME:     0.21 SEC, REAL TIME:     0.25 SEC
 SORT2 READ    15396605. AND WROTE    15487395. INTEGRALS IN    480 RECORDS. CPU TIME:     0.07 SEC, REAL TIME:     0.11 SEC

 Node minimum:     5160610.  Node maximum:     5164320. integrals

 OPERATOR DM      FOR CENTER  0  COORDINATES:    0.000000    0.000000    0.000000


 **********************************************************************************************************************************
 DATASETS  * FILE   NREC   LENGTH (MB)   RECORD NAMES
              1      18        3.17       500      610      700      900      950      970     1000      129      960     1100   
                                          VAR    BASINP    GEOM    SYMINP    ZMAT    AOBASIS   BASIS     P2S    ABASIS      S 
                                         1400     1410     1200     1210     1080     1600     1650     1700   
                                           T        V       H0       H01     AOSYM     SMH    MOLCAS    OPER   

 PROGRAMS   *        TOTAL       INT
 CPU TIMES  *         0.93      0.88
 REAL TIME  *         1.37 SEC
 DISK USED  *       304.48 MB      
 GA USED    *         0.00 MB       (max)       0.00 MB       (current)
 **********************************************************************************************************************************

1PROGRAM * RHF-SCF (OPEN SHELL)       Authors: W. Meyer, H.-J. Werner


 NUMBER OF ELECTRONS:      21+   20-    SPACE SYMMETRY=1    SPIN SYMMETRY: Doublet 
 CONVERGENCE THRESHOLDS:    1.00E-10 (Density)    1.00E-11 (Energy)
 MAX. NUMBER OF ITERATIONS:      200
 INTERPOLATION TYPE:            DIIS
 INTERPOLATION STEPS:              2 (START)      1 (STEP)
 LEVEL SHIFTS:                 -0.30 (CLOSED)  0.00 (OPEN) 



 Orbital guess generated from atomic densities. Full valence occupancy:   32

 Molecular orbital dump at record        2100.2

 ITERATION    DDIFF          GRAD             ENERGY        2-EL.EN.            DIPOLE MOMENTS         DIIS
    1      0.000D+00      0.000D+00      -267.17826166    555.837708    0.57061    0.04870   -0.74962    0
    2      0.000D+00      0.617D-02      -267.24897033    555.758974    0.41433   -0.13153   -0.59860    1
    3      0.928D-02      0.214D-02      -267.26115063    555.676789    0.39391   -0.05957   -0.62590    2
    4      0.336D-02      0.912D-03      -267.26476054    555.829134    0.37924   -0.09969   -0.64225    3
    5      0.186D-02      0.364D-03      -267.26532988    555.800528    0.38175   -0.09320   -0.63521    4
    6      0.792D-03      0.110D-03      -267.26540637    555.786769    0.38000   -0.09300   -0.63795    5
    7      0.277D-03      0.511D-04      -267.26542652    555.783773    0.37929   -0.09274   -0.63744    6
    8      0.144D-03      0.273D-04      -267.26543259    555.781827    0.37956   -0.09286   -0.63765    7
    9      0.924D-04      0.115D-04      -267.26543351    555.782142    0.37975   -0.09282   -0.63741    8
   10      0.366D-04      0.501D-05      -267.26543366    555.782754    0.38001   -0.09283   -0.63747    9
   11      0.147D-04      0.197D-05      -267.26543369    555.782595    0.38006   -0.09282   -0.63748    9
   12      0.651D-05      0.671D-06      -267.26543369    555.782729    0.38008   -0.09282   -0.63747    9
   13      0.227D-05      0.226D-06      -267.26543369    555.782645    0.38008   -0.09282   -0.63747    9
   14      0.632D-06      0.756D-07      -267.26543369    555.782654    0.38008   -0.09283   -0.63747    9
   15      0.192D-06      0.299D-07      -267.26543369    555.782650    0.38008   -0.09283   -0.63747    9
   16      0.821D-07      0.144D-07      -267.26543369    555.782651    0.38008   -0.09283   -0.63747    9
   17      0.371D-07      0.746D-08      -267.26543369    555.782651    0.38008   -0.09283   -0.63747    9
   18      0.220D-07      0.340D-08      -267.26543369    555.782651    0.38008   -0.09283   -0.63747    9
   19      0.114D-07      0.133D-08      -267.26543369    555.782651    0.38008   -0.09283   -0.63747    9
   20      0.444D-08      0.565D-09      -267.26543369    555.782651    0.38008   -0.09283   -0.63747    9
   21      0.165D-08      0.285D-09      -267.26543369    555.782651    0.38008   -0.09283   -0.63747    9
   22      0.750D-09      0.161D-09      -267.26543369    555.782651    0.38008   -0.09283   -0.63747    9
   23      0.444D-09      0.792D-10      -267.26543369    555.782651    0.38008   -0.09283   -0.63747    9
   24      0.262D-09      0.315D-10      -267.26543369    555.782651    0.38008   -0.09283   -0.63747    9
   25      0.929D-10      0.129D-10      -267.26543369    555.782651    0.38008   -0.09283   -0.63747    0

 Final alpha occupancy:  21
 Final beta  occupancy:  20

 !RHF STATE 1.1 Energy               -267.265433692998
 Nuclear energy                       183.23302205
 One-electron energy                 -728.38978147
 Two-electron energy                  277.89132573
 Virial quotient                       -1.00154340
 !RHF STATE 1.1 Dipole moment           0.38008349    -0.09282594    -0.63746988
 Dipole moment /Debye                   0.96601259    -0.23592456    -1.62018070

 Orbital energies:

         1.1          2.1          3.1          4.1          5.1          6.1          7.1          8.1          9.1         10.1
    -20.630514   -20.628809   -11.279251   -11.237638   -11.232134    -1.470162    -1.240757    -1.023265    -0.945483    -0.768549

        11.1         12.1         13.1         14.1         15.1         16.1         17.1         18.1         19.1         20.1
     -0.704572    -0.643127    -0.626750    -0.588850    -0.545216    -0.543500    -0.539045    -0.516981    -0.493056    -0.469744

        21.1         22.1         23.1
     -0.352324     0.181311     0.183525


 **********************************************************************************************************************************
 DATASETS  * FILE   NREC   LENGTH (MB)   RECORD NAMES
              1      18        3.17       500      610      700      900      950      970     1000      129      960     1100   
                                          VAR    BASINP    GEOM    SYMINP    ZMAT    AOBASIS   BASIS     P2S    ABASIS      S 
                                         1400     1410     1200     1210     1080     1600     1650     1700   
                                           T        V       H0       H01     AOSYM     SMH    MOLCAS    OPER   

              2       3        0.77       700     1000     2100   
                                         GEOM     BASIS     RHF  

 PROGRAMS   *        TOTAL       RHF       INT
 CPU TIMES  *         2.02      1.08      0.88
 REAL TIME  *         2.62 SEC
 DISK USED  *       321.05 MB      
 SF USED    *         0.04 MB      
 GA USED    *         0.00 MB       (max)       0.00 MB       (current)
 **********************************************************************************************************************************


1PROGRAM * CCSD (Unrestricted open-shell coupled cluster)     Authors: C. Hampel, H.-J. Werner, 1991, M. Deegan, P.J. Knowles, 1992


 Convergence thresholds:  THRVAR = 1.00D-08  THRDEN = 1.00D-10

 CCSD(T)     terms to be evaluated (factor= 1.000)


 Number of core orbitals:           5 (   5 )
 Number of closed-shell orbitals:  15 (  15 )
 Number of active  orbitals:        1 (   1 )
 Number of external orbitals:      84 (  84 )

 Memory could be reduced to 24.91 Mwords without degradation in triples

 Number of N-1 electron functions:              31
 Number of N-2 electron functions:             465
 Number of singly external CSFs:              2635
 Number of doubly external CSFs:           2537250
 Total number of CSFs:                     2539885

 Molecular orbitals read from record     2100.2  Type=RHF/CANONICAL (state 1.1)

 Integral transformation finished. Total CPU:   0.91 sec, npass=  1  Memory used:  12.63 MW

 Starting RMP2 calculation

 ITER.      SQ.NORM     CORR.ENERGY   TOTAL ENERGY   ENERGY CHANGE        DEN1      VAR(S)    VAR(P)  DIIS     TIME
   1      1.24299162    -0.78634180  -268.05177549    -0.78634180    -0.00304905  0.20D-04  0.11D-02  1  1     1.24
   2      1.24563200    -0.78962996  -268.05506365    -0.00328816    -0.00000474  0.54D-06  0.19D-05  2  2     1.54
   3      1.24569750    -0.78967200  -268.05510569    -0.00004204    -0.00000003  0.16D-07  0.68D-08  3  3     1.88
   4      1.24569846    -0.78967200  -268.05510570    -0.00000000    -0.00000000  0.27D-09  0.38D-10  4  4     2.24
   5      1.24569854    -0.78967204  -268.05510573    -0.00000003    -0.00000000  0.25D-11  0.65D-12  5  5     2.63
   6      1.24569855    -0.78967204  -268.05510574    -0.00000001    -0.00000000  0.28D-13  0.86D-14  6  6     3.05
   7      1.24569855    -0.78967204  -268.05510573     0.00000000    -0.00000000  0.47D-15  0.12D-15  6  1     3.46
   8      1.24569855    -0.78967204  -268.05510573     0.00000000    -0.00000000  0.59D-17  0.13D-17  6  2     3.87

 Norm of t1 vector:      0.03892318      S-energy:    -0.00227084      T1 diagnostic:  0.00055013
 Norm of t2 vector:      0.49414931      P-energy:    -0.78740121
                                         Alpha-Beta:  -0.59338400
                                         Alpha-Alpha: -0.10093936
                                         Beta-Beta:   -0.09307785

 Spin contamination <S**2-Sz**2-Sz>     0.00104003
  Reference energy                   -267.265433692999
  RHF-RMP2 correlation energy          -0.789672041954
 !RHF-RMP2 energy                    -268.055105734953

 Starting UCCSD calculation

 ITER.      SQ.NORM     CORR.ENERGY   TOTAL ENERGY   ENERGY CHANGE        DEN1      VAR(S)    VAR(P)  DIIS     TIME
   1      1.26276106    -0.80901556  -268.07444926    -0.80901556    -0.02515148  0.38D-02  0.59D-02  1  1     9.23
   2      1.29152597    -0.83641949  -268.10185319    -0.02740393    -0.00201045  0.22D-03  0.66D-03  2  2    14.64
   3      1.30146313    -0.84091562  -268.10634931    -0.00449613    -0.00032459  0.19D-03  0.56D-04  3  3    20.07
   4      1.30637560    -0.84239237  -268.10782606    -0.00147675    -0.00007210  0.43D-04  0.14D-04  4  4    25.52
   5      1.30910609    -0.84278054  -268.10821424    -0.00038817    -0.00002368  0.19D-04  0.32D-05  5  5    31.60
   6      1.31104593    -0.84298507  -268.10841876    -0.00020453    -0.00000646  0.42D-05  0.12D-05  6  6    39.33
   7      1.31199587    -0.84304390  -268.10847759    -0.00005882    -0.00000208  0.14D-05  0.37D-06  6  2    47.09
   8      1.31243791    -0.84308660  -268.10852029    -0.00004270    -0.00000065  0.45D-06  0.11D-06  6  1    54.88
   9      1.31262335    -0.84309118  -268.10852488    -0.00000458    -0.00000022  0.15D-06  0.35D-07  6  4    62.63
  10      1.31268654    -0.84309410  -268.10852780    -0.00000292    -0.00000005  0.35D-07  0.95D-08  6  3    70.39
  11      1.31271607    -0.84309285  -268.10852654     0.00000125    -0.00000002  0.13D-07  0.28D-08  6  5    77.21
  12      1.31272648    -0.84309259  -268.10852629     0.00000026    -0.00000000  0.26D-08  0.95D-09  6  6    84.97
  13      1.31272534    -0.84309168  -268.10852537     0.00000091    -0.00000000  0.96D-09  0.28D-09  6  2    92.74
  14      1.31272013    -0.84309084  -268.10852453     0.00000084    -0.00000000  0.21D-09  0.67D-10  6  1   100.50
  15      1.31271605    -0.84309025  -268.10852394     0.00000059    -0.00000000  0.78D-10  0.19D-10  6  4   108.26
  16      1.31271287    -0.84308986  -268.10852356     0.00000038    -0.00000000  0.28D-10  0.63D-11  6  3   115.97
  17      1.31271066    -0.84308963  -268.10852332     0.00000024    -0.00000000  0.10D-10  0.24D-11  6  5   123.52
  18      1.31270976    -0.84308957  -268.10852326     0.00000006    -0.00000000  0.41D-11  0.87D-12  6  6   129.01
  19      1.31270915    -0.84308953  -268.10852323     0.00000003    -0.00000000  0.16D-11  0.37D-12  6  2   134.50
  20      1.31270883    -0.84308952  -268.10852321     0.00000001    -0.00000000  0.60D-12  0.13D-12  6  1   140.02
  21      1.31270866    -0.84308951  -268.10852320     0.00000001    -0.00000000  0.28D-12  0.58D-13  6  4   145.51
  22      1.31270854    -0.84308950  -268.10852319     0.00000001    -0.00000000  0.74D-13  0.21D-13  6  3   150.97
  23      1.31270848    -0.84308950  -268.10852319     0.00000000    -0.00000000  0.21D-13  0.63D-14  6  5   156.46
  24      1.31270848    -0.84308950  -268.10852319    -0.00000000    -0.00000000  0.67D-14  0.22D-14  6  6   161.95
  25      1.31270848    -0.84308950  -268.10852319    -0.00000000    -0.00000000  0.21D-14  0.52D-15  6  2   167.46
  26      1.31270849    -0.84308950  -268.10852319    -0.00000000    -0.00000000  0.77D-15  0.15D-15  6  1   172.99
  27      1.31270850    -0.84308950  -268.10852320    -0.00000000    -0.00000000  0.20D-15  0.63D-16  6  3   178.52
  28      1.31270850    -0.84308950  -268.10852320    -0.00000000    -0.00000000  0.30D-16  0.11D-16  6  4   184.04
  29      1.31270851    -0.84308950  -268.10852320    -0.00000000    -0.00000000  0.71D-17  0.29D-17  6  5   189.50
  30      1.31270851    -0.84308950  -268.10852320    -0.00000000    -0.00000000  0.15D-17  0.54D-18  6  6   194.98
  31      1.31270851    -0.84308950  -268.10852320    -0.00000000    -0.00000000  0.35D-18  0.10D-18  6  2   200.49

 Norm of t1 vector:      0.13871792      S-energy:    -0.00282030      T1 diagnostic:  0.01616976
                                                                       D1 diagnostic:  0.06281417
 Norm of t2 vector:      0.54172488      P-energy:    -0.84026920
                                         Alpha-Beta:  -0.66482212
                                         Alpha-Alpha: -0.09147522
                                         Beta-Beta:   -0.08397186

 Spin contamination <S**2-Sz**2-Sz>     0.00217257

 Memory could be reduced to 28.85 Mwords without degradation in triples
 

 RESULTS
 =======

  Reference energy                   -267.265433692999
  UCCSD singles energy                 -0.002820300615
  UCCSD pair energy                    -0.840269202498
  UCCSD correlation energy             -0.843089503113
  Triples (T) contribution             -0.024972043681
  Total correlation energy             -0.868061546794
 
  RHF-UCCSD energy                   -268.108523196112
  RHF-UCCSD[T] energy                -268.134830945020
  RHF-UCCSD-T energy                 -268.133073841092
 !RHF-UCCSD(T) energy                -268.133495239793

 Program statistics:

 Available memory in ccsd:               999997692
 Min. memory needed in ccsd:               7337057
 Max. memory used in ccsd:                10523002
 Max. memory used in cckext:              10867977 (31 integral passes)
 Max. memory used in cckint:              12633073 ( 1 integral passes)



 **********************************************************************************************************************************
 DATASETS  * FILE   NREC   LENGTH (MB)   RECORD NAMES
              1      18        3.17       500      610      700      900      950      970     1000      129      960     1100   
                                          VAR    BASINP    GEOM    SYMINP    ZMAT    AOBASIS   BASIS     P2S    ABASIS      S 
                                         1400     1410     1200     1210     1080     1600     1650     1700   
                                           T        V       H0       H01     AOSYM     SMH    MOLCAS    OPER   

              2       3        0.77       700     1000     2100   
                                         GEOM     BASIS     RHF  

 PROGRAMS   *        TOTAL  UCCSD(T)       RHF       INT
 CPU TIMES  *       248.96    246.95      1.08      0.88
 REAL TIME  *       262.77 SEC
 DISK USED  *         1.29 GB      
 SF USED    *       553.73 MB      
 GA USED    *         0.00 MB       (max)       0.00 MB       (current)
 **********************************************************************************************************************************

        UCCSD(T)        RHF-SCF 
   -268.13349524   -267.26543369
 **********************************************************************************************************************************
 Variable memory released
