
    -----------------------------------------------------------------------
          Psi4: An Open-Source Ab Initio Electronic Structure Package
                               Psi4 1.4a2.dev478 

                         Git: Rev {master} f722895 dirty


    R. M. Parrish, L. A. Burns, D. G. A. Smith, A. C. Simmonett,
    A. E. DePrince III, E. G. Hohenstein, U. Bozkaya, A. Yu. Sokolov,
    R. Di Remigio, R. M. Richard, J. F. Gonthier, A. M. James,
    H. R. McAlexander, A. Kumar, M. Saitow, X. Wang, B. P. Pritchard,
    P. Verma, H. F. Schaefer III, K. Patkowski, R. A. King, E. F. Valeev,
    F. A. Evangelista, J. M. Turney, T. D. Crawford, and C. D. Sherrill,
    J. Chem. Theory Comput. 13(7) pp 3185--3197 (2017).
    (doi: 10.1021/acs.jctc.7b00174)


                         Additional Contributions by
    P. Kraus, H. Kruse, M. H. Lechner, M. C. Schieber, R. A. Shaw,
    A. Alenaizan, R. Galvelis, Z. L. Glick, S. Lehtola, and J. P. Misiewicz

    -----------------------------------------------------------------------


    Psi4 started on: Friday, 05 June 2020 11:42AM

    Process ID: 20500
    Host:       n030
    PSIDATADIR: /opt/psi/4/master/share/psi4
    Memory:     500.0 MiB
    Threads:    4
    
  ==> Input File <==

--------------------------------------------------------------------------
set memory 40Gb

molecule {
    C   -1.169969463277   -0.774075714550   -0.000125580240
    H   -1.617202611977   -1.211544387650   -0.890367767540
    H   -1.617274396477   -1.211731322050    0.889988080060
    C   -1.170087777377    0.773896028650    0.000044791660
    H   -1.617450892977    1.211295070450    0.890255761560
    H   -1.617399631177    1.211482151650   -0.887674005356
    C    0.356732235583    0.920125683947   -0.000023280928
    H    0.841131868201    1.891613494255    0.000111764521
    O    0.761109026082    0.000106450354   -1.017896499995
    C    0.356873033199   -0.920070827144   -0.000109512911
    H    0.841421934697   -1.891484184577   -0.000062878987
    O    0.760728047128    0.000010462800    1.017914907157
}

set {
    e_convergence 10
    d_convergence 10
    freeze_core True
    basis_guess True
    cc_type conv
    maxiter 300
}

E = energy('mp2/heavy-aug-cc-pV(Q+d)Z')
psi4.print_out("\n========================OPTAVC-XTPL==========================\n\n")
psi4.print_out("MP2/QZ correlation energy {}\n".format(variable("MP2 CORRELATION ENERGY")))
psi4.print_out("SCF/QZ reference energy {}\n".format(variable("CURRENT REFERENCE ENERGY")))
psi4.print_out("\n\n=============================================================\n")

E = energy('mp2/heavy-aug-cc-pV(T+d)Z')
psi4.print_out("\n========================OPTAVC-XTPL==========================\n\n")
psi4.print_out("MP2/TZ correlation energy {}".format(variable("MP2 CORRELATION ENERGY")))
psi4.print_out("\n\n=============================================================\n")
--------------------------------------------------------------------------

Scratch directory: /tmp/

Scratch directory: /tmp/
    SCF Algorithm Type (re)set to DF.

*** tstart() called on n030
*** at Fri Jun  5 11:42:51 2020


  //>>>>>>>>>>>>>>>>>>>>>>>>>>>>>>>>>>>//
  //      Guess SCF, pcseg-0 Basis     //
  //<<<<<<<<<<<<<<<<<<<<<<<<<<<<<<<<<<<//

   => Loading Basis Set <=

    Name: PCSEG-0
    Role: ORBITAL
    Keyword: BASIS
    atoms 1, 4, 7, 10     entry C          line    71 file /opt/psi/4/master/share/psi4/basis/pcseg-0.gbs 
    atoms 2-3, 5-6, 8, 11 entry H          line    13 file /opt/psi/4/master/share/psi4/basis/pcseg-0.gbs 
    atoms 9, 12           entry O          line   103 file /opt/psi/4/master/share/psi4/basis/pcseg-0.gbs 


         ---------------------------------------------------------
                           SCF Castup computation                  
         ---------------------------------------------------------
                                   SCF
               by Justin Turney, Rob Parrish, Andy Simmonett
                          and Daniel G. A. Smith
                              RHF Reference
                        4 Threads,    500 MiB Core
         ---------------------------------------------------------

  ==> Geometry <==

    Molecular point group: c1
    Full point group: C1

    Geometry (in Angstrom), charge = 0, multiplicity = 1:

       Center              X                  Y                   Z               Mass       
    ------------   -----------------  -----------------  -----------------  -----------------
         C           -1.169969463277    -0.774075714550    -0.000125580240    12.000000000000
         H           -1.617202611977    -1.211544387650    -0.890367767540     1.007825032230
         H           -1.617274396477    -1.211731322050     0.889988080060     1.007825032230
         C           -1.170087777377     0.773896028650     0.000044791660    12.000000000000
         H           -1.617450892977     1.211295070450     0.890255761560     1.007825032230
         H           -1.617399631177     1.211482151650    -0.887674005356     1.007825032230
         C            0.356732235583     0.920125683947    -0.000023280928    12.000000000000
         H            0.841131868201     1.891613494255     0.000111764521     1.007825032230
         O            0.761109026082     0.000106450354    -1.017896499995    15.994914619570
         C            0.356873033199    -0.920070827144    -0.000109512911    12.000000000000
         H            0.841421934697    -1.891484184577    -0.000062878987     1.007825032230
         O            0.760728047128     0.000010462800     1.017914907157    15.994914619570

  Running in c1 symmetry.

  Rotational constants: A =      0.20030  B =      0.16408  C =      0.14758 [cm^-1]
  Rotational constants: A =   6004.98203  B =   4919.01302  C =   4424.29038 [MHz]
  Nuclear repulsion =  258.073201685194817

  Charge       = 0
  Multiplicity = 1
  Electrons    = 46
  Nalpha       = 23
  Nbeta        = 23

  ==> Algorithm <==

  SCF Algorithm Type is DF.
  DIIS enabled.
  MOM disabled.
  Fractional occupation disabled.
  Guess Type is SAD.
  Energy threshold   = 1.00e-10
  Density threshold  = 1.00e-10
  Integral threshold = 0.00e+00

  ==> Primary Basis <==

  Basis Set: PCSEG-0
    Blend: PCSEG-0
    Number of shells: 42
    Number of basis function: 66
    Number of Cartesian functions: 66
    Spherical Harmonics?: true
    Max angular momentum: 1

   => Loading Basis Set <=

    Name: (PCSEG-0 AUX)
    Role: JKFIT
    Keyword: DF_BASIS_SCF
    atoms 1, 4, 7, 10     entry C          line   198 file /opt/psi/4/master/share/psi4/basis/def2-universal-jkfit.gbs 
    atoms 2-3, 5-6, 8, 11 entry H          line    18 file /opt/psi/4/master/share/psi4/basis/def2-universal-jkfit.gbs 
    atoms 9, 12           entry O          line   318 file /opt/psi/4/master/share/psi4/basis/def2-universal-jkfit.gbs 

  ==> Integral Setup <==

  ==> DiskDFJK: Density-Fitted J/K Matrices <==

    J tasked:                  Yes
    K tasked:                  Yes
    wK tasked:                  No
    OpenMP threads:              4
    Integrals threads:           4
    Memory [MiB]:              375
    Algorithm:                Core
    Integral Cache:           NONE
    Schwarz Cutoff:          1E-12
    Fitting Condition:       1E-10

   => Auxiliary Basis Set <=

  Basis Set: (PCSEG-0 AUX)
    Blend: DEF2-UNIVERSAL-JKFIT
    Number of shells: 186
    Number of basis function: 562
    Number of Cartesian functions: 662
    Spherical Harmonics?: true
    Max angular momentum: 4

  Minimum eigenvalue in the overlap matrix is 1.2762360980E-03.
  Reciprocal condition number of the overlap matrix is 2.1007741022E-04.
    Using symmetric orthogonalization.

  ==> Pre-Iterations <==

  SCF Guess: Superposition of Atomic Densities via on-the-fly atomic UHF (no occupation information).

   -------------------------
    Irrep   Nso     Nmo    
   -------------------------
     A         66      66 
   -------------------------
    Total      66      66
   -------------------------

  ==> Iterations <==

                           Total Energy        Delta E     RMS |[F,P]|

   @DF-RHF iter SAD:  -303.78436732587141   -3.03784e+02   0.00000e+00 
   @DF-RHF iter   1:  -303.56516923456411    2.19198e-01   7.21059e-03 DIIS
   @DF-RHF iter   2:  -303.66410399371716   -9.89348e-02   3.86671e-03 DIIS
   @DF-RHF iter   3:  -303.68845545470197   -2.43515e-02   6.09886e-04 DIIS
   @DF-RHF iter   4:  -303.68959557958061   -1.14012e-03   1.89734e-04 DIIS
   @DF-RHF iter   5:  -303.68968403573996   -8.84562e-05   4.01129e-05 DIIS
   @DF-RHF iter   6:  -303.68969115578278   -7.12004e-06   8.08962e-06 DIIS
   @DF-RHF iter   7:  -303.68969152738225   -3.71599e-07   1.66944e-06 DIIS
   @DF-RHF iter   8:  -303.68969154045641   -1.30742e-08   5.23172e-07 DIIS
   @DF-RHF iter   9:  -303.68969154178706   -1.33065e-09   1.00081e-07 DIIS
   @DF-RHF iter  10:  -303.68969154185083   -6.37783e-11   1.72612e-08 DIIS
   @DF-RHF iter  11:  -303.68969154185208   -1.25056e-12   4.70814e-09 DIIS
   @DF-RHF iter  12:  -303.68969154185277   -6.82121e-13   2.13566e-09 DIIS
   @DF-RHF iter  13:  -303.68969154185214    6.25278e-13   2.10752e-10 DIIS
   @DF-RHF iter  14:  -303.68969154185237   -2.27374e-13   6.74308e-11 DIIS
  Energy and wave function converged.


  ==> Post-Iterations <==

    Orbital Energies [Eh]
    ---------------------

    Doubly Occupied:                                                      

       1A    -20.583841     2A    -20.583767     3A    -11.368387  
       4A    -11.368380     5A    -11.254641     6A    -11.254180  
       7A     -1.548721     8A     -1.317304     9A     -1.091270  
      10A     -1.011041    11A     -0.822430    12A     -0.788020  
      13A     -0.770601    14A     -0.684688    15A     -0.664446  
      16A     -0.661767    17A     -0.555075    18A     -0.534572  
      19A     -0.528191    20A     -0.525335    21A     -0.518380  
      22A     -0.467588    23A     -0.441353  

    Virtual:                                                              

      24A      0.203742    25A      0.232933    26A      0.236703  
      27A      0.242142    28A      0.254687    29A      0.267690  
      30A      0.316136    31A      0.351972    32A      0.354600  
      33A      0.388115    34A      0.408838    35A      0.474139  
      36A      0.575780    37A      0.796124    38A      0.799802  
      39A      0.820941    40A      0.924849    41A      0.934113  
      42A      0.944564    43A      0.951997    44A      1.004337  
      45A      1.005514    46A      1.033532    47A      1.061509  
      48A      1.071818    49A      1.136559    50A      1.149963  
      51A      1.171697    52A      1.173115    53A      1.210995  
      54A      1.239450    55A      1.421509    56A      1.454472  
      57A      1.484940    58A      1.525918    59A      1.692420  
      60A      1.710138    61A      1.929880    62A      1.952674  
      63A      2.144759    64A      2.303188    65A      2.379064  
      66A      2.449472  

    Final Occupation by Irrep:
              A 
    DOCC [    23 ]

  @DF-RHF Final Energy:  -303.68969154185237

   => Energetics <=

    Nuclear Repulsion Energy =            258.0732016851948174
    One-Electron Energy =                -924.8378334819418569
    Two-Electron Energy =                 363.0749402548946705
    Total Energy =                       -303.6896915418523690

Computation Completed

  //>>>>>>>>>>>>>>>>>>>>>>>>>>>>>>>>>>>//
  //                SCF                //
  //<<<<<<<<<<<<<<<<<<<<<<<<<<<<<<<<<<<//

   => Loading Basis Set <=

    Name: HEAVY-AUG-CC-PV(Q+D)Z
    Role: ORBITAL
    Keyword: BASIS
    atoms 1, 4, 7, 10     entry C          line   333 file /opt/psi/4/master/share/psi4/basis/heavy-aug-cc-pv_qpd_z.gbs 
    atoms 2-3, 5-6, 8, 11 entry H          line    86 file /opt/psi/4/master/share/psi4/basis/heavy-aug-cc-pv_qpd_z.gbs 
    atoms 9, 12           entry O          line   453 file /opt/psi/4/master/share/psi4/basis/heavy-aug-cc-pv_qpd_z.gbs 


         ---------------------------------------------------------
                                   SCF
               by Justin Turney, Rob Parrish, Andy Simmonett
                          and Daniel G. A. Smith
                              RHF Reference
                        4 Threads,    500 MiB Core
         ---------------------------------------------------------

  ==> Geometry <==

    Molecular point group: c1
    Full point group: C1

    Geometry (in Angstrom), charge = 0, multiplicity = 1:

       Center              X                  Y                   Z               Mass       
    ------------   -----------------  -----------------  -----------------  -----------------
         C           -1.169969463277    -0.774075714550    -0.000125580240    12.000000000000
         H           -1.617202611977    -1.211544387650    -0.890367767540     1.007825032230
         H           -1.617274396477    -1.211731322050     0.889988080060     1.007825032230
         C           -1.170087777377     0.773896028650     0.000044791660    12.000000000000
         H           -1.617450892977     1.211295070450     0.890255761560     1.007825032230
         H           -1.617399631177     1.211482151650    -0.887674005356     1.007825032230
         C            0.356732235583     0.920125683947    -0.000023280928    12.000000000000
         H            0.841131868201     1.891613494255     0.000111764521     1.007825032230
         O            0.761109026082     0.000106450354    -1.017896499995    15.994914619570
         C            0.356873033199    -0.920070827144    -0.000109512911    12.000000000000
         H            0.841421934697    -1.891484184577    -0.000062878987     1.007825032230
         O            0.760728047128     0.000010462800     1.017914907157    15.994914619570

  Running in c1 symmetry.

  Rotational constants: A =      0.20030  B =      0.16408  C =      0.14758 [cm^-1]
  Rotational constants: A =   6004.98203  B =   4919.01302  C =   4424.29038 [MHz]
  Nuclear repulsion =  258.073201685194817

  Charge       = 0
  Multiplicity = 1
  Electrons    = 46
  Nalpha       = 23
  Nbeta        = 23

  ==> Algorithm <==

  SCF Algorithm Type is DF.
  DIIS enabled.
  MOM disabled.
  Fractional occupation disabled.
  Guess Type is SAD.
  Energy threshold   = 1.00e-10
  Density threshold  = 1.00e-10
  Integral threshold = 0.00e+00

  ==> Primary Basis <==

  Basis Set: HEAVY-AUG-CC-PV(Q+D)Z
    Blend: HEAVY-AUG-CC-PV(Q+D)Z
    Number of shells: 180
    Number of basis function: 660
    Number of Cartesian functions: 840
    Spherical Harmonics?: true
    Max angular momentum: 4

   => Loading Basis Set <=

    Name: (HEAVY-AUG-CC-PV(Q+D)Z AUX)
    Role: JKFIT
    Keyword: DF_BASIS_SCF
    atoms 1, 4, 7, 10     entry C          line   214 file /opt/psi/4/master/share/psi4/basis/heavy-aug-cc-pvqz-jkfit.gbs 
    atoms 2-3, 5-6, 8, 11 entry H          line   116 file /opt/psi/4/master/share/psi4/basis/heavy-aug-cc-pvqz-jkfit.gbs 
    atoms 9, 12           entry O          line   354 file /opt/psi/4/master/share/psi4/basis/heavy-aug-cc-pvqz-jkfit.gbs 


  Computing basis projection from PCSEG-0 to HEAVY-AUG-CC-PV(Q+D)Z

  ==> Integral Setup <==

  ==> DiskDFJK: Density-Fitted J/K Matrices <==

    J tasked:                  Yes
    K tasked:                  Yes
    wK tasked:                  No
    OpenMP threads:              4
    Integrals threads:           4
    Memory [MiB]:              375
    Algorithm:                Disk
    Integral Cache:           NONE
    Schwarz Cutoff:          1E-12
    Fitting Condition:       1E-10

   => Auxiliary Basis Set <=

  Basis Set: (HEAVY-AUG-CC-PV(Q+D)Z AUX)
    Blend: HEAVY-AUG-CC-PVQZ-JKFIT
    Number of shells: 282
    Number of basis function: 1158
    Number of Cartesian functions: 1584
    Spherical Harmonics?: true
    Max angular momentum: 5

  Minimum eigenvalue in the overlap matrix is 1.0734762234E-06.
  Reciprocal condition number of the overlap matrix is 6.8718770361E-08.
    Using symmetric orthogonalization.

  ==> Pre-Iterations <==

  SCF Guess: Orbitals guess was supplied from a previous computation.

   -------------------------
    Irrep   Nso     Nmo    
   -------------------------
     A        660     660 
   -------------------------
    Total     660     660
   -------------------------

  ==> Iterations <==

                           Total Energy        Delta E     RMS |[F,P]|

   @DF-RHF iter   0:  -304.22026388434563   -3.04220e+02   4.49027e-03 
   @DF-RHF iter   1:  -304.73500673889316   -5.14743e-01   3.39647e-04 DIIS
   @DF-RHF iter   2:  -304.75116243737017   -1.61557e-02   1.55014e-04 DIIS
   @DF-RHF iter   3:  -304.75508211190242   -3.91967e-03   2.79026e-05 DIIS
   @DF-RHF iter   4:  -304.75535540763985   -2.73296e-04   7.95630e-06 DIIS
   @DF-RHF iter   5:  -304.75537661817918   -2.12105e-05   3.36795e-06 DIIS
   @DF-RHF iter   6:  -304.75537987563632   -3.25746e-06   8.32199e-07 DIIS
   @DF-RHF iter   7:  -304.75538015895671   -2.83320e-07   1.75383e-07 DIIS
   @DF-RHF iter   8:  -304.75538017278643   -1.38297e-08   4.58397e-08 DIIS
   @DF-RHF iter   9:  -304.75538017382189   -1.03546e-09   1.49156e-08 DIIS
   @DF-RHF iter  10:  -304.75538017391239   -9.04947e-11   3.66135e-09 DIIS
   @DF-RHF iter  11:  -304.75538017391830   -5.91172e-12   9.20826e-10 DIIS
   @DF-RHF iter  12:  -304.75538017392063   -2.33058e-12   2.66133e-10 DIIS
   @DF-RHF iter  13:  -304.75538017391750    3.12639e-12   4.38358e-11 DIIS
  Energy and wave function converged.


  ==> Post-Iterations <==

    Orbital Energies [Eh]
    ---------------------

    Doubly Occupied:                                                      

       1A    -20.564293     2A    -20.564239     3A    -11.346879  
       4A    -11.346852     5A    -11.235040     6A    -11.234422  
       7A     -1.500691     8A     -1.295998     9A     -1.066703  
      10A     -0.989851    11A     -0.810630    12A     -0.787535  
      13A     -0.749064    14A     -0.676518    15A     -0.657260  
      16A     -0.645472    17A     -0.537644    18A     -0.525371  
      19A     -0.519498    20A     -0.511735    21A     -0.508805  
      22A     -0.460232    23A     -0.431551  

    Virtual:                                                              

      24A      0.041668    25A      0.042965    26A      0.050513  
      27A      0.062650    28A      0.063959    29A      0.079818  
      30A      0.080058    31A      0.083468    32A      0.101528  
      33A      0.110292    34A      0.111775    35A      0.112234  
      36A      0.139396    37A      0.151951    38A      0.166515  
      39A      0.171526    40A      0.178369    41A      0.178845  
      42A      0.188739    43A      0.188994    44A      0.199225  
      45A      0.207575    46A      0.226247    47A      0.227058  
      48A      0.230218    49A      0.258094    50A      0.261574  
      51A      0.270711    52A      0.271401    53A      0.272954  
      54A      0.287088    55A      0.288290    56A      0.291662  
      57A      0.301307    58A      0.316699    59A      0.319868  
      60A      0.325892    61A      0.333526    62A      0.338467  
      63A      0.356650    64A      0.358178    65A      0.370099  
      66A      0.381355    67A      0.388259    68A      0.390873  
      69A      0.391782    70A      0.392735    71A      0.399317  
      72A      0.399404    73A      0.413701    74A      0.420631  
      75A      0.421988    76A      0.440192    77A      0.452939  
      78A      0.457649    79A      0.465857    80A      0.495239  
      81A      0.517093    82A      0.518906    83A      0.523973  
      84A      0.528078    85A      0.550629    86A      0.572885  
      87A      0.575739    88A      0.586263    89A      0.590243  
      90A      0.598510    91A      0.601000    92A      0.614864  
      93A      0.629789    94A      0.642252    95A      0.656513  
      96A      0.659723    97A      0.686966    98A      0.690282  
      99A      0.697299   100A      0.704721   101A      0.716270  
     102A      0.721676   103A      0.735168   104A      0.744971  
     105A      0.759922   106A      0.766586   107A      0.790081  
     108A      0.791555   109A      0.794827   110A      0.796332  
     111A      0.828658   112A      0.832263   113A      0.833899  
     114A      0.850104   115A      0.860618   116A      0.876237  
     117A      0.885311   118A      0.898085   119A      0.920697  
     120A      0.939382   121A      0.948102   122A      0.960289  
     123A      0.960892   124A      0.987395   125A      1.002473  
     126A      1.010053   127A      1.012677   128A      1.017654  
     129A      1.035023   130A      1.035272   131A      1.047568  
     132A      1.060669   133A      1.071525   134A      1.074846  
     135A      1.098191   136A      1.114370   137A      1.129150  
     138A      1.140947   139A      1.154382   140A      1.160411  
     141A      1.160950   142A      1.166867   143A      1.167450  
     144A      1.177564   145A      1.191010   146A      1.198642  
     147A      1.209803   148A      1.222568   149A      1.231086  
     150A      1.235280   151A      1.238365   152A      1.240293  
     153A      1.246886   154A      1.276621   155A      1.278386  
     156A      1.289256   157A      1.289710   158A      1.306539  
     159A      1.315545   160A      1.329691   161A      1.371456  
     162A      1.373860   163A      1.410070   164A      1.411082  
     165A      1.436311   166A      1.442582   167A      1.459702  
     168A      1.469900   169A      1.477044   170A      1.487233  
     171A      1.490773   172A      1.510131   173A      1.525815  
     174A      1.534682   175A      1.545236   176A      1.594803  
     177A      1.595384   178A      1.620337   179A      1.622879  
     180A      1.626096   181A      1.626565   182A      1.646641  
     183A      1.684326   184A      1.686749   185A      1.701378  
     186A      1.723901   187A      1.727767   188A      1.734254  
     189A      1.754650   190A      1.777221   191A      1.779236  
     192A      1.813844   193A      1.867168   194A      1.875399  
     195A      1.887271   196A      1.898819   197A      1.909163  
     198A      1.928007   199A      1.960759   200A      1.968592  
     201A      1.998806   202A      2.000561   203A      2.017399  
     204A      2.022277   205A      2.026906   206A      2.029981  
     207A      2.035265   208A      2.038971   209A      2.044917  
     210A      2.106252   211A      2.116091   212A      2.126229  
     213A      2.142479   214A      2.145998   215A      2.173544  
     216A      2.189799   217A      2.190134   218A      2.212311  
     219A      2.255188   220A      2.261630   221A      2.270484  
     222A      2.296226   223A      2.301733   224A      2.309556  
     225A      2.339359   226A      2.342106   227A      2.362203  
     228A      2.364515   229A      2.366192   230A      2.377081  
     231A      2.390597   232A      2.400935   233A      2.407285  
     234A      2.423309   235A      2.442820   236A      2.448438  
     237A      2.460395   238A      2.487677   239A      2.492696  
     240A      2.518785   241A      2.527869   242A      2.536919  
     243A      2.547330   244A      2.561463   245A      2.590125  
     246A      2.594475   247A      2.622121   248A      2.634983  
     249A      2.635222   250A      2.648924   251A      2.666524  
     252A      2.683599   253A      2.701635   254A      2.719826  
     255A      2.734321   256A      2.735307   257A      2.754045  
     258A      2.766327   259A      2.766816   260A      2.802250  
     261A      2.807403   262A      2.807807   263A      2.835919  
     264A      2.861959   265A      2.870450   266A      2.923825  
     267A      2.941350   268A      2.945846   269A      2.970971  
     270A      2.977566   271A      2.988935   272A      2.992971  
     273A      3.010546   274A      3.033820   275A      3.043748  
     276A      3.051722   277A      3.078574   278A      3.083794  
     279A      3.084210   280A      3.106317   281A      3.111593  
     282A      3.137880   283A      3.148650   284A      3.156549  
     285A      3.175201   286A      3.190287   287A      3.229955  
     288A      3.250134   289A      3.260322   290A      3.270508  
     291A      3.291406   292A      3.297924   293A      3.322618  
     294A      3.364252   295A      3.368725   296A      3.400935  
     297A      3.403695   298A      3.406727   299A      3.434760  
     300A      3.457622   301A      3.465081   302A      3.481311  
     303A      3.503796   304A      3.523954   305A      3.537373  
     306A      3.554175   307A      3.574859   308A      3.599778  
     309A      3.614260   310A      3.619657   311A      3.641545  
     312A      3.664512   313A      3.694188   314A      3.707139  
     315A      3.716879   316A      3.749050   317A      3.754658  
     318A      3.757671   319A      3.810243   320A      3.836557  
     321A      3.846470   322A      3.847118   323A      3.877479  
     324A      3.909041   325A      3.911163   326A      3.922139  
     327A      3.951980   328A      3.964976   329A      3.985165  
     330A      4.044164   331A      4.048674   332A      4.052065  
     333A      4.062968   334A      4.085964   335A      4.101290  
     336A      4.121147   337A      4.139717   338A      4.158154  
     339A      4.172934   340A      4.203965   341A      4.206468  
     342A      4.219976   343A      4.243535   344A      4.251426  
     345A      4.276991   346A      4.296047   347A      4.317154  
     348A      4.337041   349A      4.340325   350A      4.365016  
     351A      4.408913   352A      4.435578   353A      4.447009  
     354A      4.458060   355A      4.470619   356A      4.490911  
     357A      4.500749   358A      4.513315   359A      4.526023  
     360A      4.542177   361A      4.571031   362A      4.598032  
     363A      4.637714   364A      4.662312   365A      4.676447  
     366A      4.698725   367A      4.699698   368A      4.708089  
     369A      4.719974   370A      4.747664   371A      4.759146  
     372A      4.763910   373A      4.789064   374A      4.831464  
     375A      4.835950   376A      4.836250   377A      4.849301  
     378A      4.860959   379A      4.913620   380A      4.944969  
     381A      4.989013   382A      5.007557   383A      5.010836  
     384A      5.035655   385A      5.062467   386A      5.124926  
     387A      5.172091   388A      5.175714   389A      5.186119  
     390A      5.245402   391A      5.255508   392A      5.258260  
     393A      5.285504   394A      5.295858   395A      5.311430  
     396A      5.348211   397A      5.368343   398A      5.391754  
     399A      5.424338   400A      5.503614   401A      5.525611  
     402A      5.555414   403A      5.596735   404A      5.637658  
     405A      5.660153   406A      5.661220   407A      5.677896  
     408A      5.794377   409A      5.837789   410A      5.838869  
     411A      5.844871   412A      5.909822   413A      5.976830  
     414A      6.038851   415A      6.108324   416A      6.148378  
     417A      6.192312   418A      6.220854   419A      6.234946  
     420A      6.242221   421A      6.296665   422A      6.339976  
     423A      6.344772   424A      6.348893   425A      6.372085  
     426A      6.399566   427A      6.422519   428A      6.464365  
     429A      6.490172   430A      6.497481   431A      6.515269  
     432A      6.527998   433A      6.539691   434A      6.583135  
     435A      6.587236   436A      6.619096   437A      6.642503  
     438A      6.648855   439A      6.655996   440A      6.690620  
     441A      6.702628   442A      6.705585   443A      6.716977  
     444A      6.755383   445A      6.774604   446A      6.787231  
     447A      6.815858   448A      6.822600   449A      6.856757  
     450A      6.897243   451A      6.909006   452A      6.920377  
     453A      6.923700   454A      6.924212   455A      6.947524  
     456A      6.981432   457A      6.996871   458A      7.014928  
     459A      7.040768   460A      7.096276   461A      7.108284  
     462A      7.111098   463A      7.138690   464A      7.160888  
     465A      7.181099   466A      7.196417   467A      7.208677  
     468A      7.223022   469A      7.225084   470A      7.255763  
     471A      7.281451   472A      7.312087   473A      7.360874  
     474A      7.369503   475A      7.373242   476A      7.420561  
     477A      7.441117   478A      7.442759   479A      7.478585  
     480A      7.541805   481A      7.548347   482A      7.601882  
     483A      7.606396   484A      7.618311   485A      7.642564  
     486A      7.721928   487A      7.733366   488A      7.751653  
     489A      7.757108   490A      7.785141   491A      7.818590  
     492A      7.841303   493A      7.848603   494A      7.861048  
     495A      7.926034   496A      7.951600   497A      7.954850  
     498A      7.989444   499A      7.999981   500A      8.023866  
     501A      8.026968   502A      8.049868   503A      8.094652  
     504A      8.118049   505A      8.153793   506A      8.158465  
     507A      8.199904   508A      8.207043   509A      8.329405  
     510A      8.337498   511A      8.342648   512A      8.356004  
     513A      8.390532   514A      8.422042   515A      8.426591  
     516A      8.485780   517A      8.509592   518A      8.511313  
     519A      8.530711   520A      8.557673   521A      8.568059  
     522A      8.595305   523A      8.611178   524A      8.617346  
     525A      8.656538   526A      8.697883   527A      8.712751  
     528A      8.721473   529A      8.767424   530A      8.816715  
     531A      8.832718   532A      8.841008   533A      8.844264  
     534A      8.847140   535A      8.891407   536A      8.901988  
     537A      8.929586   538A      8.943386   539A      8.959189  
     540A      9.010512   541A      9.017715   542A      9.030161  
     543A      9.039099   544A      9.049185   545A      9.067485  
     546A      9.086710   547A      9.112151   548A      9.118800  
     549A      9.173789   550A      9.179499   551A      9.192546  
     552A      9.237693   553A      9.254405   554A      9.315193  
     555A      9.345312   556A      9.354696   557A      9.357779  
     558A      9.369236   559A      9.399934   560A      9.453543  
     561A      9.504055   562A      9.515960   563A      9.529312  
     564A      9.558299   565A      9.652998   566A      9.660873  
     567A      9.728313   568A      9.762170   569A      9.774526  
     570A      9.798222   571A      9.835701   572A      9.898470  
     573A      9.926523   574A      9.933382   575A      9.963725  
     576A     10.073249   577A     10.116212   578A     10.235118  
     579A     10.243768   580A     10.259942   581A     10.294595  
     582A     10.420993   583A     10.482672   584A     10.504054  
     585A     10.516673   586A     10.589223   587A     10.627697  
     588A     10.649234   589A     10.783376   590A     10.792987  
     591A     10.824365   592A     10.828822   593A     10.971412  
     594A     11.007252   595A     11.058473   596A     11.084166  
     597A     11.097549   598A     11.107885   599A     11.146877  
     600A     11.153244   601A     11.177091   602A     11.220027  
     603A     11.235723   604A     11.258580   605A     11.351465  
     606A     11.387448   607A     11.457975   608A     11.467510  
     609A     11.512919   610A     11.514270   611A     11.526864  
     612A     11.557634   613A     11.635264   614A     11.658831  
     615A     11.744205   616A     11.829238   617A     11.848504  
     618A     11.884410   619A     11.908763   620A     11.927921  
     621A     12.220413   622A     12.278300   623A     12.317143  
     624A     12.400399   625A     12.664424   626A     12.677576  
     627A     12.822158   628A     12.908994   629A     12.949941  
     630A     13.058510   631A     13.097852   632A     13.114392  
     633A     13.197222   634A     13.239635   635A     13.270986  
     636A     13.357978   637A     13.390099   638A     13.401850  
     639A     13.426693   640A     13.532632   641A     13.535832  
     642A     13.554990   643A     13.742326   644A     13.751179  
     645A     13.819523   646A     13.820911   647A     13.867465  
     648A     13.933060   649A     14.007270   650A     14.018833  
     651A     14.164477   652A     14.172757   653A     14.730388  
     654A     14.927263   655A     27.317987   656A     27.905825  
     657A     28.056319   658A     28.610337   659A     44.849434  
     660A     45.764708  

    Final Occupation by Irrep:
              A 
    DOCC [    23 ]

  @DF-RHF Final Energy:  -304.75538017391750

   => Energetics <=

    Nuclear Repulsion Energy =            258.0732016851948174
    One-Electron Energy =                -927.7245913971195250
    Two-Electron Energy =                 364.8960095380072062
    Total Energy =                       -304.7553801739175015

Computation Completed


Properties will be evaluated at   0.000000,   0.000000,   0.000000 [a0]

Properties computed using the SCF density matrix

  Nuclear Dipole Moment: [e a0]
     X:    -4.4801      Y:    -0.0003      Z:     0.0021

  Electronic Dipole Moment: [e a0]
     X:     3.7439      Y:     0.0007      Z:    -0.0025

  Dipole Moment: [e a0]
     X:    -0.7362      Y:     0.0004      Z:    -0.0004     Total:     0.7362

  Dipole Moment: [D]
     X:    -1.8713      Y:     0.0009      Z:    -0.0010     Total:     1.8713


*** tstop() called on n030 at Fri Jun  5 11:43:55 2020
Module time:
	user time   =     240.54 seconds =       4.01 minutes
	system time =       7.22 seconds =       0.12 minutes
	total time  =         64 seconds =       1.07 minutes
Total time:
	user time   =     240.54 seconds =       4.01 minutes
	system time =       7.22 seconds =       0.12 minutes
	total time  =         64 seconds =       1.07 minutes

*** tstart() called on n030
*** at Fri Jun  5 11:43:55 2020


  //>>>>>>>>>>>>>>>>>>>>>>>>>>>>>>>>>>>//
  //               DFMP2               //
  //<<<<<<<<<<<<<<<<<<<<<<<<<<<<<<<<<<<//

   => Loading Basis Set <=

    Name: (HEAVY-AUG-CC-PV(Q+D)Z AUX)
    Role: RIFIT
    Keyword: DF_BASIS_MP2
    atoms 1, 4, 7, 10     entry C          line   180 file /opt/psi/4/master/share/psi4/basis/heavy-aug-cc-pvqz-ri.gbs 
    atoms 2-3, 5-6, 8, 11 entry H          line    44 file /opt/psi/4/master/share/psi4/basis/heavy-aug-cc-pvqz-ri.gbs 
    atoms 9, 12           entry O          line   328 file /opt/psi/4/master/share/psi4/basis/heavy-aug-cc-pvqz-ri.gbs 

	 --------------------------------------------------------
	                          DF-MP2                         
	      2nd-Order Density-Fitted Moller-Plesset Theory     
	              RMP2 Wavefunction,   4 Threads             
	                                                         
	        Rob Parrish, Justin Turney, Andy Simmonett,      
	           Ed Hohenstein, and C. David Sherrill          
	 --------------------------------------------------------

   => Auxiliary Basis Set <=

  Basis Set: (HEAVY-AUG-CC-PV(Q+D)Z AUX)
    Blend: HEAVY-AUG-CC-PVQZ-RI
    Number of shells: 306
    Number of basis function: 1338
    Number of Cartesian functions: 1842
    Spherical Harmonics?: true
    Max angular momentum: 5

	 --------------------------------------------------------
	                 NBF =   660, NAUX =  1338
	 --------------------------------------------------------
	   CLASS    FOCC     OCC    AOCC    AVIR     VIR    FVIR
	   PAIRS       6      23      17     637     637       0
	 --------------------------------------------------------

	-----------------------------------------------------------
	 ==================> DF-MP2 Energies <==================== 
	-----------------------------------------------------------
	 Reference Energy          =    -304.7553801739175015 [Eh]
	 Singles Energy            =      -0.0000000000000000 [Eh]
	 Same-Spin Energy          =      -0.2937675566462847 [Eh]
	 Opposite-Spin Energy      =      -0.9223628688875785 [Eh]
	 Correlation Energy        =      -1.2161304255338632 [Eh]
	 Total Energy              =    -305.9715105994513920 [Eh]
	-----------------------------------------------------------
	 ================> DF-SCS-MP2 Energies <================== 
	-----------------------------------------------------------
	 SCS Same-Spin Scale       =       0.3333333333333333 [-]
	 SCS Opposite-Spin Scale   =       1.2000000000000000 [-]
	 SCS Same-Spin Energy      =      -0.0979225188820949 [Eh]
	 SCS Opposite-Spin Energy  =      -1.1068354426650941 [Eh]
	 SCS Correlation Energy    =      -1.2047579615471891 [Eh]
	 SCS Total Energy          =    -305.9601381354647174 [Eh]
	-----------------------------------------------------------


*** tstop() called on n030 at Fri Jun  5 11:44:07 2020
Module time:
	user time   =      46.32 seconds =       0.77 minutes
	system time =       0.43 seconds =       0.01 minutes
	total time  =         12 seconds =       0.20 minutes
Total time:
	user time   =     286.87 seconds =       4.78 minutes
	system time =       7.65 seconds =       0.13 minutes
	total time  =         76 seconds =       1.27 minutes

========================OPTAVC-XTPL==========================

MP2/QZ correlation energy -1.2161304255338632
SCF/QZ reference energy -304.7553801739175


=============================================================

Scratch directory: /tmp/

Scratch directory: /tmp/
    SCF Algorithm Type (re)set to DF.

*** tstart() called on n030
*** at Fri Jun  5 11:44:07 2020


  //>>>>>>>>>>>>>>>>>>>>>>>>>>>>>>>>>>>//
  //      Guess SCF, pcseg-0 Basis     //
  //<<<<<<<<<<<<<<<<<<<<<<<<<<<<<<<<<<<//

   => Loading Basis Set <=

    Name: PCSEG-0
    Role: ORBITAL
    Keyword: BASIS
    atoms 1, 4, 7, 10     entry C          line    71 file /opt/psi/4/master/share/psi4/basis/pcseg-0.gbs 
    atoms 2-3, 5-6, 8, 11 entry H          line    13 file /opt/psi/4/master/share/psi4/basis/pcseg-0.gbs 
    atoms 9, 12           entry O          line   103 file /opt/psi/4/master/share/psi4/basis/pcseg-0.gbs 


         ---------------------------------------------------------
                           SCF Castup computation                  
         ---------------------------------------------------------
                                   SCF
               by Justin Turney, Rob Parrish, Andy Simmonett
                          and Daniel G. A. Smith
                              RHF Reference
                        4 Threads,    500 MiB Core
         ---------------------------------------------------------

  ==> Geometry <==

    Molecular point group: c1
    Full point group: C1

    Geometry (in Angstrom), charge = 0, multiplicity = 1:

       Center              X                  Y                   Z               Mass       
    ------------   -----------------  -----------------  -----------------  -----------------
         C           -1.169969463277    -0.774075714550    -0.000125580240    12.000000000000
         H           -1.617202611977    -1.211544387650    -0.890367767540     1.007825032230
         H           -1.617274396477    -1.211731322050     0.889988080060     1.007825032230
         C           -1.170087777377     0.773896028650     0.000044791660    12.000000000000
         H           -1.617450892977     1.211295070450     0.890255761560     1.007825032230
         H           -1.617399631177     1.211482151650    -0.887674005356     1.007825032230
         C            0.356732235583     0.920125683947    -0.000023280928    12.000000000000
         H            0.841131868201     1.891613494255     0.000111764521     1.007825032230
         O            0.761109026082     0.000106450354    -1.017896499995    15.994914619570
         C            0.356873033199    -0.920070827144    -0.000109512911    12.000000000000
         H            0.841421934697    -1.891484184577    -0.000062878987     1.007825032230
         O            0.760728047128     0.000010462800     1.017914907157    15.994914619570

  Running in c1 symmetry.

  Rotational constants: A =      0.20030  B =      0.16408  C =      0.14758 [cm^-1]
  Rotational constants: A =   6004.98203  B =   4919.01302  C =   4424.29038 [MHz]
  Nuclear repulsion =  258.073201685194817

  Charge       = 0
  Multiplicity = 1
  Electrons    = 46
  Nalpha       = 23
  Nbeta        = 23

  ==> Algorithm <==

  SCF Algorithm Type is DF.
  DIIS enabled.
  MOM disabled.
  Fractional occupation disabled.
  Guess Type is SAD.
  Energy threshold   = 1.00e-10
  Density threshold  = 1.00e-10
  Integral threshold = 0.00e+00

  ==> Primary Basis <==

  Basis Set: PCSEG-0
    Blend: PCSEG-0
    Number of shells: 42
    Number of basis function: 66
    Number of Cartesian functions: 66
    Spherical Harmonics?: true
    Max angular momentum: 1

   => Loading Basis Set <=

    Name: (PCSEG-0 AUX)
    Role: JKFIT
    Keyword: DF_BASIS_SCF
    atoms 1, 4, 7, 10     entry C          line   198 file /opt/psi/4/master/share/psi4/basis/def2-universal-jkfit.gbs 
    atoms 2-3, 5-6, 8, 11 entry H          line    18 file /opt/psi/4/master/share/psi4/basis/def2-universal-jkfit.gbs 
    atoms 9, 12           entry O          line   318 file /opt/psi/4/master/share/psi4/basis/def2-universal-jkfit.gbs 

  ==> Integral Setup <==

  ==> DiskDFJK: Density-Fitted J/K Matrices <==

    J tasked:                  Yes
    K tasked:                  Yes
    wK tasked:                  No
    OpenMP threads:              4
    Integrals threads:           4
    Memory [MiB]:              375
    Algorithm:                Core
    Integral Cache:           NONE
    Schwarz Cutoff:          1E-12
    Fitting Condition:       1E-10

   => Auxiliary Basis Set <=

  Basis Set: (PCSEG-0 AUX)
    Blend: DEF2-UNIVERSAL-JKFIT
    Number of shells: 186
    Number of basis function: 562
    Number of Cartesian functions: 662
    Spherical Harmonics?: true
    Max angular momentum: 4

  Minimum eigenvalue in the overlap matrix is 1.2762360980E-03.
  Reciprocal condition number of the overlap matrix is 2.1007741022E-04.
    Using symmetric orthogonalization.

  ==> Pre-Iterations <==

  SCF Guess: Superposition of Atomic Densities via on-the-fly atomic UHF (no occupation information).

   -------------------------
    Irrep   Nso     Nmo    
   -------------------------
     A         66      66 
   -------------------------
    Total      66      66
   -------------------------

  ==> Iterations <==

                           Total Energy        Delta E     RMS |[F,P]|

   @DF-RHF iter SAD:  -303.78436732583225   -3.03784e+02   0.00000e+00 
   @DF-RHF iter   1:  -303.56516923453955    2.19198e-01   7.21059e-03 DIIS
   @DF-RHF iter   2:  -303.66410399369124   -9.89348e-02   3.86671e-03 DIIS
   @DF-RHF iter   3:  -303.68845545467514   -2.43515e-02   6.09886e-04 DIIS
   @DF-RHF iter   4:  -303.68959557955350   -1.14012e-03   1.89734e-04 DIIS
   @DF-RHF iter   5:  -303.68968403571364   -8.84562e-05   4.01129e-05 DIIS
   @DF-RHF iter   6:  -303.68969115575601   -7.12004e-06   8.08962e-06 DIIS
   @DF-RHF iter   7:  -303.68969152735525   -3.71599e-07   1.66944e-06 DIIS
   @DF-RHF iter   8:  -303.68969154042935   -1.30741e-08   5.23172e-07 DIIS
   @DF-RHF iter   9:  -303.68969154176119   -1.33184e-09   1.00081e-07 DIIS
   @DF-RHF iter  10:  -303.68969154182417   -6.29825e-11   1.72612e-08 DIIS
   @DF-RHF iter  11:  -303.68969154182594   -1.76215e-12   4.70814e-09 DIIS
   @DF-RHF iter  12:  -303.68969154182588    5.68434e-14   2.13566e-09 DIIS
   @DF-RHF iter  13:  -303.68969154182571    1.70530e-13   2.10752e-10 DIIS
   @DF-RHF iter  14:  -303.68969154182565    5.68434e-14   6.74304e-11 DIIS
  Energy and wave function converged.


  ==> Post-Iterations <==

    Orbital Energies [Eh]
    ---------------------

    Doubly Occupied:                                                      

       1A    -20.583841     2A    -20.583767     3A    -11.368387  
       4A    -11.368380     5A    -11.254641     6A    -11.254180  
       7A     -1.548721     8A     -1.317304     9A     -1.091270  
      10A     -1.011041    11A     -0.822430    12A     -0.788020  
      13A     -0.770601    14A     -0.684688    15A     -0.664446  
      16A     -0.661767    17A     -0.555075    18A     -0.534572  
      19A     -0.528191    20A     -0.525335    21A     -0.518380  
      22A     -0.467588    23A     -0.441353  

    Virtual:                                                              

      24A      0.203742    25A      0.232933    26A      0.236703  
      27A      0.242142    28A      0.254687    29A      0.267690  
      30A      0.316136    31A      0.351972    32A      0.354600  
      33A      0.388115    34A      0.408838    35A      0.474139  
      36A      0.575780    37A      0.796124    38A      0.799802  
      39A      0.820941    40A      0.924849    41A      0.934113  
      42A      0.944564    43A      0.951997    44A      1.004337  
      45A      1.005514    46A      1.033532    47A      1.061509  
      48A      1.071818    49A      1.136559    50A      1.149963  
      51A      1.171697    52A      1.173115    53A      1.210995  
      54A      1.239450    55A      1.421509    56A      1.454472  
      57A      1.484940    58A      1.525918    59A      1.692420  
      60A      1.710138    61A      1.929880    62A      1.952674  
      63A      2.144759    64A      2.303188    65A      2.379064  
      66A      2.449472  

    Final Occupation by Irrep:
              A 
    DOCC [    23 ]

  @DF-RHF Final Energy:  -303.68969154182565

   => Energetics <=

    Nuclear Repulsion Energy =            258.0732016851948174
    One-Electron Energy =                -924.8378334819827842
    Two-Electron Energy =                 363.0749402549623142
    Total Energy =                       -303.6896915418256526

Computation Completed

  //>>>>>>>>>>>>>>>>>>>>>>>>>>>>>>>>>>>//
  //                SCF                //
  //<<<<<<<<<<<<<<<<<<<<<<<<<<<<<<<<<<<//

   => Loading Basis Set <=

    Name: HEAVY-AUG-CC-PV(T+D)Z
    Role: ORBITAL
    Keyword: BASIS
    atoms 1, 4, 7, 10     entry C          line   273 file /opt/psi/4/master/share/psi4/basis/heavy-aug-cc-pv_tpd_z.gbs 
    atoms 2-3, 5-6, 8, 11 entry H          line    86 file /opt/psi/4/master/share/psi4/basis/heavy-aug-cc-pv_tpd_z.gbs 
    atoms 9, 12           entry O          line   365 file /opt/psi/4/master/share/psi4/basis/heavy-aug-cc-pv_tpd_z.gbs 


         ---------------------------------------------------------
                                   SCF
               by Justin Turney, Rob Parrish, Andy Simmonett
                          and Daniel G. A. Smith
                              RHF Reference
                        4 Threads,    500 MiB Core
         ---------------------------------------------------------

  ==> Geometry <==

    Molecular point group: c1
    Full point group: C1

    Geometry (in Angstrom), charge = 0, multiplicity = 1:

       Center              X                  Y                   Z               Mass       
    ------------   -----------------  -----------------  -----------------  -----------------
         C           -1.169969463277    -0.774075714550    -0.000125580240    12.000000000000
         H           -1.617202611977    -1.211544387650    -0.890367767540     1.007825032230
         H           -1.617274396477    -1.211731322050     0.889988080060     1.007825032230
         C           -1.170087777377     0.773896028650     0.000044791660    12.000000000000
         H           -1.617450892977     1.211295070450     0.890255761560     1.007825032230
         H           -1.617399631177     1.211482151650    -0.887674005356     1.007825032230
         C            0.356732235583     0.920125683947    -0.000023280928    12.000000000000
         H            0.841131868201     1.891613494255     0.000111764521     1.007825032230
         O            0.761109026082     0.000106450354    -1.017896499995    15.994914619570
         C            0.356873033199    -0.920070827144    -0.000109512911    12.000000000000
         H            0.841421934697    -1.891484184577    -0.000062878987     1.007825032230
         O            0.760728047128     0.000010462800     1.017914907157    15.994914619570

  Running in c1 symmetry.

  Rotational constants: A =      0.20030  B =      0.16408  C =      0.14758 [cm^-1]
  Rotational constants: A =   6004.98203  B =   4919.01302  C =   4424.29038 [MHz]
  Nuclear repulsion =  258.073201685194817

  Charge       = 0
  Multiplicity = 1
  Electrons    = 46
  Nalpha       = 23
  Nbeta        = 23

  ==> Algorithm <==

  SCF Algorithm Type is DF.
  DIIS enabled.
  MOM disabled.
  Fractional occupation disabled.
  Guess Type is SAD.
  Energy threshold   = 1.00e-10
  Density threshold  = 1.00e-10
  Integral threshold = 0.00e+00

  ==> Primary Basis <==

  Basis Set: HEAVY-AUG-CC-PV(T+D)Z
    Blend: HEAVY-AUG-CC-PV(T+D)Z
    Number of shells: 120
    Number of basis function: 360
    Number of Cartesian functions: 420
    Spherical Harmonics?: true
    Max angular momentum: 3

   => Loading Basis Set <=

    Name: (HEAVY-AUG-CC-PV(T+D)Z AUX)
    Role: JKFIT
    Keyword: DF_BASIS_SCF
    atoms 1, 4, 7, 10     entry C          line   200 file /opt/psi/4/master/share/psi4/basis/heavy-aug-cc-pvtz-jkfit.gbs 
    atoms 2-3, 5-6, 8, 11 entry H          line   116 file /opt/psi/4/master/share/psi4/basis/heavy-aug-cc-pvtz-jkfit.gbs 
    atoms 9, 12           entry O          line   324 file /opt/psi/4/master/share/psi4/basis/heavy-aug-cc-pvtz-jkfit.gbs 


  Computing basis projection from PCSEG-0 to HEAVY-AUG-CC-PV(T+D)Z

  ==> Integral Setup <==

  ==> DiskDFJK: Density-Fitted J/K Matrices <==

    J tasked:                  Yes
    K tasked:                  Yes
    wK tasked:                  No
    OpenMP threads:              4
    Integrals threads:           4
    Memory [MiB]:              375
    Algorithm:                Disk
    Integral Cache:           NONE
    Schwarz Cutoff:          1E-12
    Fitting Condition:       1E-10

   => Auxiliary Basis Set <=

  Basis Set: (HEAVY-AUG-CC-PV(T+D)Z AUX)
    Blend: HEAVY-AUG-CC-PVTZ-JKFIT
    Number of shells: 240
    Number of basis function: 804
    Number of Cartesian functions: 996
    Spherical Harmonics?: true
    Max angular momentum: 4

  Minimum eigenvalue in the overlap matrix is 5.4763583276E-06.
  Reciprocal condition number of the overlap matrix is 3.9961610202E-07.
    Using symmetric orthogonalization.

  ==> Pre-Iterations <==

  SCF Guess: Orbitals guess was supplied from a previous computation.

   -------------------------
    Irrep   Nso     Nmo    
   -------------------------
     A        360     360 
   -------------------------
    Total     360     360
   -------------------------

  ==> Iterations <==

                           Total Energy        Delta E     RMS |[F,P]|

   @DF-RHF iter   0:  -304.36016654296770   -3.04360e+02   4.19525e-03 
   @DF-RHF iter   1:  -304.71759403047656   -3.57427e-01   5.78069e-04 DIIS
   @DF-RHF iter   2:  -304.73288005470590   -1.52860e-02   2.73823e-04 DIIS
   @DF-RHF iter   3:  -304.73660948434292   -3.72943e-03   4.82193e-05 DIIS
   @DF-RHF iter   4:  -304.73686955013096   -2.60066e-04   1.47349e-05 DIIS
   @DF-RHF iter   5:  -304.73688924968354   -1.96996e-05   6.03001e-06 DIIS
   @DF-RHF iter   6:  -304.73689268382236   -3.43414e-06   1.40526e-06 DIIS
   @DF-RHF iter   7:  -304.73689292898541   -2.45163e-07   3.05100e-07 DIIS
   @DF-RHF iter   8:  -304.73689294202552   -1.30401e-08   8.03969e-08 DIIS
   @DF-RHF iter   9:  -304.73689294292637   -9.00855e-10   2.56488e-08 DIIS
   @DF-RHF iter  10:  -304.73689294301334   -8.69704e-11   6.19609e-09 DIIS
   @DF-RHF iter  11:  -304.73689294301948   -6.13909e-12   1.58507e-09 DIIS
   @DF-RHF iter  12:  -304.73689294302022   -7.38964e-13   4.52488e-10 DIIS
   @DF-RHF iter  13:  -304.73689294302028   -5.68434e-14   7.25613e-11 DIIS
  Energy and wave function converged.


  ==> Post-Iterations <==

    Orbital Energies [Eh]
    ---------------------

    Doubly Occupied:                                                      

       1A    -20.567250     2A    -20.567197     3A    -11.347988  
       4A    -11.347964     5A    -11.236119     6A    -11.235504  
       7A     -1.501506     8A     -1.296798     9A     -1.066949  
      10A     -0.990136    11A     -0.810724    12A     -0.787690  
      13A     -0.749023    14A     -0.676418    15A     -0.657285  
      16A     -0.645323    17A     -0.537573    18A     -0.525217  
      19A     -0.519366    20A     -0.511658    21A     -0.508604  
      22A     -0.459968    23A     -0.431351  

    Virtual:                                                              

      24A      0.050442    25A      0.051292    26A      0.059466  
      27A      0.072110    28A      0.073471    29A      0.092419  
      30A      0.093432    31A      0.096779    32A      0.116649  
      33A      0.126407    34A      0.127462    35A      0.130109  
      36A      0.162131    37A      0.176385    38A      0.195493  
      39A      0.204219    40A      0.206624    41A      0.214156  
      42A      0.220961    43A      0.228191    44A      0.233691  
      45A      0.249521    46A      0.268186    47A      0.268970  
      48A      0.276982    49A      0.295946    50A      0.302229  
      51A      0.315597    52A      0.332115    53A      0.336106  
      54A      0.342717    55A      0.348416    56A      0.357001  
      57A      0.357189    58A      0.362763    59A      0.376055  
      60A      0.398617    61A      0.404089    62A      0.412802  
      63A      0.421489    64A      0.433721    65A      0.447041  
      66A      0.459434    67A      0.469182    68A      0.486617  
      69A      0.493122    70A      0.508539    71A      0.512641  
      72A      0.516760    73A      0.520726    74A      0.527717  
      75A      0.529251    76A      0.543570    77A      0.546068  
      78A      0.580574    79A      0.595840    80A      0.608233  
      81A      0.612096    82A      0.624840    83A      0.654946  
      84A      0.657300    85A      0.672122    86A      0.722718  
      87A      0.737510    88A      0.748490    89A      0.754153  
      90A      0.771693    91A      0.781648    92A      0.793717  
      93A      0.798295    94A      0.817433    95A      0.820136  
      96A      0.830175    97A      0.843435    98A      0.878363  
      99A      0.892139   100A      0.930719   101A      0.930974  
     102A      0.940152   103A      0.946356   104A      0.969989  
     105A      0.988476   106A      1.000204   107A      1.031655  
     108A      1.037655   109A      1.039089   110A      1.061886  
     111A      1.080496   112A      1.096253   113A      1.115985  
     114A      1.123294   115A      1.139051   116A      1.161589  
     117A      1.189199   118A      1.225412   119A      1.249170  
     120A      1.252444   121A      1.262817   122A      1.283105  
     123A      1.323156   124A      1.330793   125A      1.339079  
     126A      1.353463   127A      1.375271   128A      1.382708  
     129A      1.398464   130A      1.404220   131A      1.412847  
     132A      1.448395   133A      1.448560   134A      1.460328  
     135A      1.482115   136A      1.498005   137A      1.506610  
     138A      1.527443   139A      1.547206   140A      1.559663  
     141A      1.583300   142A      1.586030   143A      1.589091  
     144A      1.589985   145A      1.601714   146A      1.656109  
     147A      1.660742   148A      1.670542   149A      1.676595  
     150A      1.685049   151A      1.700336   152A      1.707967  
     153A      1.715722   154A      1.732144   155A      1.736847  
     156A      1.750227   157A      1.752843   158A      1.791873  
     159A      1.802736   160A      1.808887   161A      1.824277  
     162A      1.903539   163A      1.905625   164A      1.931458  
     165A      1.945397   166A      1.948873   167A      1.985211  
     168A      1.993632   169A      2.003837   170A      2.007472  
     171A      2.028273   172A      2.051223   173A      2.055143  
     174A      2.060540   175A      2.150858   176A      2.153771  
     177A      2.214174   178A      2.251811   179A      2.301704  
     180A      2.335235   181A      2.393093   182A      2.403074  
     183A      2.424073   184A      2.441690   185A      2.452551  
     186A      2.480816   187A      2.507930   188A      2.511610  
     189A      2.544986   190A      2.582042   191A      2.631993  
     192A      2.646168   193A      2.682300   194A      2.693428  
     195A      2.725271   196A      2.771065   197A      2.799573  
     198A      2.882139   199A      2.882972   200A      2.895245  
     201A      2.914222   202A      2.921013   203A      2.958406  
     204A      2.966168   205A      2.969410   206A      3.080862  
     207A      3.099542   208A      3.119417   209A      3.132142  
     210A      3.185771   211A      3.188431   212A      3.212508  
     213A      3.227478   214A      3.243390   215A      3.267042  
     216A      3.312387   217A      3.339147   218A      3.412623  
     219A      3.416267   220A      3.418200   221A      3.440137  
     222A      3.442713   223A      3.480583   224A      3.486557  
     225A      3.504135   226A      3.524278   227A      3.539439  
     228A      3.607650   229A      3.629221   230A      3.639667  
     231A      3.671515   232A      3.685888   233A      3.700563  
     234A      3.710774   235A      3.729993   236A      3.735914  
     237A      3.751662   238A      3.820887   239A      3.837684  
     240A      3.844610   241A      3.867518   242A      3.885619  
     243A      3.933636   244A      3.949814   245A      3.966375  
     246A      3.966582   247A      3.969899   248A      4.005044  
     249A      4.026101   250A      4.050123   251A      4.056523  
     252A      4.080479   253A      4.107495   254A      4.114427  
     255A      4.148367   256A      4.167900   257A      4.176316  
     258A      4.185497   259A      4.191740   260A      4.214855  
     261A      4.244616   262A      4.253374   263A      4.260323  
     264A      4.268468   265A      4.274174   266A      4.318906  
     267A      4.346046   268A      4.366862   269A      4.430181  
     270A      4.467233   271A      4.484845   272A      4.486587  
     273A      4.500259   274A      4.517012   275A      4.532182  
     276A      4.555621   277A      4.584941   278A      4.639159  
     279A      4.691396   280A      4.694188   281A      4.703975  
     282A      4.708551   283A      4.735275   284A      4.745723  
     285A      4.758804   286A      4.808884   287A      4.821343  
     288A      4.821883   289A      4.841235   290A      4.889292  
     291A      4.908093   292A      4.960075   293A      4.966775  
     294A      4.968531   295A      5.098720   296A      5.120554  
     297A      5.125422   298A      5.194217   299A      5.200693  
     300A      5.241580   301A      5.273041   302A      5.291371  
     303A      5.398181   304A      5.424994   305A      5.437128  
     306A      5.468618   307A      5.477320   308A      5.584404  
     309A      5.585242   310A      5.607168   311A      5.656738  
     312A      5.705810   313A      5.711507   314A      5.730813  
     315A      5.862565   316A      5.868671   317A      5.900818  
     318A      5.938069   319A      6.062022   320A      6.129493  
     321A      6.153251   322A      6.209031   323A      6.261997  
     324A      6.289081   325A      6.301816   326A      6.361256  
     327A      6.385169   328A      6.499021   329A      6.564157  
     330A      6.901577   331A      6.906022   332A      6.955150  
     333A      6.970967   334A      6.997734   335A      7.032954  
     336A      7.111282   337A      7.141272   338A      7.179664  
     339A      7.207177   340A      7.245728   341A      7.254672  
     342A      7.404406   343A      7.507569   344A      7.599769  
     345A      7.615170   346A      7.660000   347A      7.755732  
     348A      7.811175   349A      7.825195   350A      7.924641  
     351A      8.059694   352A      8.210660   353A      8.213675  
     354A      8.233724   355A     14.279299   356A     15.467566  
     357A     15.712982   358A     15.958499   359A     17.527361  
     360A     18.821529  

    Final Occupation by Irrep:
              A 
    DOCC [    23 ]

  @DF-RHF Final Energy:  -304.73689294302028

   => Energetics <=

    Nuclear Repulsion Energy =            258.0732016851948174
    One-Electron Energy =                -927.6649640790543572
    Two-Electron Energy =                 364.8548694508392600
    Total Energy =                       -304.7368929430202797

Computation Completed


Properties will be evaluated at   0.000000,   0.000000,   0.000000 [a0]

Properties computed using the SCF density matrix

  Nuclear Dipole Moment: [e a0]
     X:    -4.4801      Y:    -0.0003      Z:     0.0021

  Electronic Dipole Moment: [e a0]
     X:     3.7435      Y:     0.0007      Z:    -0.0025

  Dipole Moment: [e a0]
     X:    -0.7366      Y:     0.0004      Z:    -0.0004     Total:     0.7366

  Dipole Moment: [D]
     X:    -1.8723      Y:     0.0009      Z:    -0.0010     Total:     1.8723


*** tstop() called on n030 at Fri Jun  5 11:44:22 2020
Module time:
	user time   =      53.93 seconds =       0.90 minutes
	system time =       1.88 seconds =       0.03 minutes
	total time  =         15 seconds =       0.25 minutes
Total time:
	user time   =     341.18 seconds =       5.69 minutes
	system time =       9.75 seconds =       0.16 minutes
	total time  =         91 seconds =       1.52 minutes

*** tstart() called on n030
*** at Fri Jun  5 11:44:22 2020


  //>>>>>>>>>>>>>>>>>>>>>>>>>>>>>>>>>>>//
  //               DFMP2               //
  //<<<<<<<<<<<<<<<<<<<<<<<<<<<<<<<<<<<//

   => Loading Basis Set <=

    Name: (HEAVY-AUG-CC-PV(T+D)Z AUX)
    Role: RIFIT
    Keyword: DF_BASIS_MP2
    atoms 1, 4, 7, 10     entry C          line   148 file /opt/psi/4/master/share/psi4/basis/heavy-aug-cc-pvtz-ri.gbs 
    atoms 2-3, 5-6, 8, 11 entry H          line    44 file /opt/psi/4/master/share/psi4/basis/heavy-aug-cc-pvtz-ri.gbs 
    atoms 9, 12           entry O          line   264 file /opt/psi/4/master/share/psi4/basis/heavy-aug-cc-pvtz-ri.gbs 

	 --------------------------------------------------------
	                          DF-MP2                         
	      2nd-Order Density-Fitted Moller-Plesset Theory     
	              RMP2 Wavefunction,   4 Threads             
	                                                         
	        Rob Parrish, Justin Turney, Andy Simmonett,      
	           Ed Hohenstein, and C. David Sherrill          
	 --------------------------------------------------------

   => Auxiliary Basis Set <=

  Basis Set: (HEAVY-AUG-CC-PV(T+D)Z AUX)
    Blend: HEAVY-AUG-CC-PVTZ-RI
    Number of shells: 228
    Number of basis function: 816
    Number of Cartesian functions: 1026
    Spherical Harmonics?: true
    Max angular momentum: 4

	 --------------------------------------------------------
	                 NBF =   360, NAUX =   816
	 --------------------------------------------------------
	   CLASS    FOCC     OCC    AOCC    AVIR     VIR    FVIR
	   PAIRS       6      23      17     337     337       0
	 --------------------------------------------------------

	-----------------------------------------------------------
	 ==================> DF-MP2 Energies <==================== 
	-----------------------------------------------------------
	 Reference Energy          =    -304.7368929430202797 [Eh]
	 Singles Energy            =      -0.0000000000000000 [Eh]
	 Same-Spin Energy          =      -0.2850915793876090 [Eh]
	 Opposite-Spin Energy      =      -0.8617480250202068 [Eh]
	 Correlation Energy        =      -1.1468396044078157 [Eh]
	 Total Energy              =    -305.8837325474281101 [Eh]
	-----------------------------------------------------------
	 ================> DF-SCS-MP2 Energies <================== 
	-----------------------------------------------------------
	 SCS Same-Spin Scale       =       0.3333333333333333 [-]
	 SCS Opposite-Spin Scale   =       1.2000000000000000 [-]
	 SCS Same-Spin Energy      =      -0.0950305264625363 [Eh]
	 SCS Opposite-Spin Energy  =      -1.0340976300242481 [Eh]
	 SCS Correlation Energy    =      -1.1291281564867846 [Eh]
	 SCS Total Energy          =    -305.8660210995070656 [Eh]
	-----------------------------------------------------------


*** tstop() called on n030 at Fri Jun  5 11:44:25 2020
Module time:
	user time   =      10.73 seconds =       0.18 minutes
	system time =       0.16 seconds =       0.00 minutes
	total time  =          3 seconds =       0.05 minutes
Total time:
	user time   =     351.91 seconds =       5.87 minutes
	system time =       9.91 seconds =       0.17 minutes
	total time  =         94 seconds =       1.57 minutes

========================OPTAVC-XTPL==========================

MP2/TZ correlation energy -1.1468396044078157

=============================================================

    Psi4 stopped on: Friday, 05 June 2020 11:44AM
    Psi4 wall time for execution: 0:01:34.38

*** Psi4 exiting successfully. Buy a developer a beer!
