
 Primary working directories    : /tmp/320938.475.gen6.q
 Secondary working directories  : /tmp/320938.475.gen6.q
 Wavefunction directory         : /home/vulcan/mel64643/wfu/
 Main file repository           : /tmp/320938.475.gen6.q/

 ARCHNAME  : Linux/x86_64
 FC        : /opt/intel/compilers_and_libraries_2016.1.150/linux/bin/intel64/ifort
 FCVERSION : 16.0.1
 BLASLIB   : -mkl
 id        : ccgc

 Nodes     nprocs
 n081         3
 Number of processes for MPI-2 version of Molpro:   nprocs(total)=    4   nprocs(compute)=    3   nprocs(helper)=    1
 ga_uses_ma=false, calling ma_init with nominal heap.
 GA-space will be limited to   8.0 MW (determined by -G option)

 Using customized tuning parameters: mindgm=10; mindgv=16; mindgc=4; mindgr=1; noblas=0; mincuda=1000; minvec=7
 default implementation of scratch files=sf  

 ***,Frequencies for min3
 memory,1000,m
 gthresh,energy=1.0d-10,orbital=1.0d-10,oneint=1.0d-16,twoint=1.0d-16,optgrad=1.0d-6,compress=1.0d-13
 geomtyp=xyz
 
  geometry = {
  12
  arbitrary comment
     C    1.776964391707    0.711398808326   -0.047331391796
     C    0.491811976407   -0.059992870174   -0.196493901896
     C    0.450332819107   -1.536901667789    0.101412520202
     O   -0.560826294830    0.727456505405    0.254456675748
     O   -1.837817290588    0.092327049911   -0.120530015878
     H    2.585380348116    0.212095879223   -0.611442231174
     H    1.658144258209    1.743035072841   -0.426580297246
     H    2.095882708029    0.774219524865    1.017702779527
     H   -0.504451841195   -1.982266230736   -0.220072072808
     H    1.282319723132   -2.046995963868   -0.416990309351
     H    0.562126273307   -1.718738684342    1.194829303770
     H   -1.987154381635    0.551536430206   -0.967275956658
  }
 
 basis=cc-pvdz
 {rhf;maxit,200}
 {uccsd(t);maxit,200}

 Variables initialized (661), CPU time= 0.00 sec
 Commands  initialized (458), CPU time= 0.00 sec, 486 directives.
 Default parameters read. Elapsed time= 0.05 sec

 Checking input...
 Passed
1


                                         ***  PROGRAM SYSTEM MOLPRO  ***
                         Copyright, University College Cardiff Consultants Limited, 2008

                                    Version 2010.1 linked May 16 2016 07:17:05


 **********************************************************************************************************************************
 LABEL *   Frequencies for min3                                                          
 Linux-4.4.3/n081(x86_64) 64 bit mpp version                                             DATE: 07-Mar-20          TIME: 03:44:35  
 **********************************************************************************************************************************

 SHA1:             9e8077add272b0f3cad6f7df79ec5211205f459d
 **********************************************************************************************************************************

 THRESHOLDS:

 ZERO    =  1.00D-12  ONEINT  =  1.00D-16  TWOINT  =  1.00D-16  PREFAC  =  1.00D-14  LOCALI  =  1.00D-09  EORDER  =  1.00D-04
 ENERGY  =  1.00D-10  ETEST   =  0.00D+00  EDENS   =  0.00D+00  THRDEDEF=  1.00D-06  GRADIENT=  1.00D-02  STEP    =  1.00D-03
 ORBITAL =  1.00D-10  CIVEC   =  1.00D-05  COEFF   =  1.00D-04  PRINTCI =  5.00D-02  PUNCHCI =  9.90D+01  OPTGRAD =  1.00D-06
 OPTENERG=  1.00D-06  OPTSTEP =  3.00D-04  THRGRAD =  1.00D-10  COMPRESS=  1.00D-13  VARMIN  =  1.00D-07  VARMAX  =  1.00D-03
 THRDOUB =  0.00D+00  THRDIV  =  1.00D-05  THRRED  =  1.00D-07  THRPSP  =  1.00D+00  THRDC   =  1.00D-10  THRCS   =  1.00D-10
 THRNRM  =  1.00D-08  THREQ   =  0.00D+00  THRDE   =  1.00D+00  THRREF  =  1.00D-05  SPARFAC =  1.00D+00  THRDLP  =  1.00D-07
 THRDIA  =  1.00D-10  THRDLS  =  1.00D-07  THRGPS  =  0.00D+00  THRKEX  =  0.00D+00  THRDIS  =  2.00D-01  THRVAR  =  1.00D-10
 THRLOC  =  1.00D-06  THRGAP  =  1.00D-06  THRLOCT = -1.00D+00  THRGAPT = -1.00D+00  THRORB  =  1.00D-06  THRMLTP =  0.00D+00
 THRCPQCI=  1.00D-10  KEXTA   =  0.00D+00  THRCOARS=  0.00D+00  SYMTOL  =  1.00D-06  GRADTOL =  1.00D-06  THROVL  =  1.00D-08
 THRORTH =  1.00D-08  GRID    =  1.00D-06  GRIDMAX =  1.00D-03  DTMAX   =  0.00D+00

 SETTING GEOMTYP        =    XYZ

 Variable memory set to 1000000000 words,  buffer space   230000 words

 SETTING BASIS          =    CC-PVDZ


 Recomputing integrals since basis changed


 Using spherical harmonics

 Library entry C      S cc-pVDZ              selected for orbital group  1
 Library entry C      P cc-pVDZ              selected for orbital group  1
 Library entry C      D cc-pVDZ              selected for orbital group  1
 Library entry O      S cc-pVDZ              selected for orbital group  2
 Library entry O      P cc-pVDZ              selected for orbital group  2
 Library entry O      D cc-pVDZ              selected for orbital group  2
 Library entry H      S cc-pVDZ              selected for orbital group  3
 Library entry H      P cc-pVDZ              selected for orbital group  3

1PROGRAM * SEWARD (Integral evaluation for generally contracted gaussian basis sets)     Author: Roland Lindh, 1990

 Geometry written to block  1 of record 700


 Point group  C1  



 ATOMIC COORDINATES

 NR  ATOM    CHARGE       X              Y              Z

   1  C       6.00    3.357976046    1.344348918   -0.089443368
   2  C       6.00    0.929389944   -0.113370094   -0.371319661
   3  C       6.00    0.851005696   -2.904323243    0.191641889
   4  O       8.00   -1.059808105    1.374693568    0.480853429
   5  O       8.00   -3.472971359    0.174472839   -0.227768721
   6  H       1.00    4.885660803    0.400803125   -1.155458362
   7  H       1.00    3.133438534    3.293858925   -0.806119935
   8  H       1.00    3.960644322    1.463062868    1.923179536
   9  H       1.00   -0.953275826   -3.745940296   -0.415875947
  10  H       1.00    2.423233090   -3.868261764   -0.787997484
  11  H       1.00    1.062264708   -3.247945405    2.257900158
  12  H       1.00   -3.755177562    1.042252805   -1.827886652

 Bond lengths in Bohr (Angstrom)

 1-2  2.846476668  1-6  2.088177998  1-7  2.089170090  1-8  2.104270184  2-3  2.848243191
     ( 1.506290578)     ( 1.105016205)     ( 1.105541197)     ( 1.113531823)     ( 1.507225382)

  2- 4  2.626298025   3- 9  2.081544858   3-10  2.088245616   3-11  2.105262405   4- 5  2.786760133
       ( 1.389777059)       ( 1.101506098)       ( 1.105051987)       ( 1.114056883)       ( 1.474689950)

  5-12  1.842026005
       ( 0.974758180)

 Bond angles

  1-2-3  120.37915346   1-2-4  108.90036039   2-1-6  110.01286774   2-1-7  110.62256630

  2- 1- 8  111.58989563   2- 3- 9  111.24511387   2- 3-10  109.80833488   2- 3-11  110.55866469

  2- 4- 5  109.22865338   3- 2- 4  118.04901335   4- 5-12   98.66495609   6- 1- 7  108.97466944

  6- 1- 8  107.71180228   7- 1- 8  107.83280307   9- 3-10  109.21138133   9- 3-11  107.90499606

 10- 3-11  108.03120759

 NUCLEAR CHARGE:                   41
 NUMBER OF PRIMITIVE AOS:         184
 NUMBER OF SYMMETRY AOS:          179
 NUMBER OF CONTRACTIONS:          105   ( 105A   )
 NUMBER OF CORE ORBITALS:           5   (   5A   )
 NUMBER OF VALENCE ORBITALS:       27   (  27A   )


 NUCLEAR REPULSION ENERGY  183.21295341


 Eigenvalues of metric

         1 0.345E-02 0.435E-02 0.105E-01 0.141E-01 0.182E-01 0.214E-01 0.331E-01 0.346E-01


 Contracted 2-electron integrals neglected if value below      1.0D-16
 AO integral compression algorithm  1   Integral accuracy      1.0D-16

     127.402 MB (compressed) written to integral file ( 93.4%)

     Node minimum: 34.341 MB, node maximum: 56.623 MB


 NUMBER OF SORTED TWO-ELECTRON INTEGRALS:    5164320.     BUFFER LENGTH:  32768
 NUMBER OF SEGMENTS:   1  SEGMENT LENGTH:    5164320      RECORD LENGTH: 524288

 Memory used in sort:       5.72 MW

 SORT1 READ    17075629. AND WROTE     5135924. INTEGRALS IN     15 RECORDS. CPU TIME:     0.30 SEC, REAL TIME:     0.34 SEC
 SORT2 READ    15396707. AND WROTE    15487395. INTEGRALS IN    393 RECORDS. CPU TIME:     0.09 SEC, REAL TIME:     0.12 SEC

 Node minimum:     5160610.  Node maximum:     5164320. integrals

 OPERATOR DM      FOR CENTER  0  COORDINATES:    0.000000    0.000000    0.000000


 **********************************************************************************************************************************
 DATASETS  * FILE   NREC   LENGTH (MB)   RECORD NAMES
              1      18        3.17       500      610      700      900      950      970     1000      129      960     1100   
                                          VAR    BASINP    GEOM    SYMINP    ZMAT    AOBASIS   BASIS     P2S    ABASIS      S 
                                         1400     1410     1200     1210     1080     1600     1650     1700   
                                           T        V       H0       H01     AOSYM     SMH    MOLCAS    OPER   

 PROGRAMS   *        TOTAL       INT
 CPU TIMES  *         1.10      1.06
 REAL TIME  *         1.50 SEC
 DISK USED  *       318.33 MB      
 GA USED    *         0.00 MB       (max)       0.00 MB       (current)
 **********************************************************************************************************************************

1PROGRAM * RHF-SCF (OPEN SHELL)       Authors: W. Meyer, H.-J. Werner


 NUMBER OF ELECTRONS:      21+   20-    SPACE SYMMETRY=1    SPIN SYMMETRY: Doublet 
 CONVERGENCE THRESHOLDS:    1.00E-10 (Density)    1.00E-11 (Energy)
 MAX. NUMBER OF ITERATIONS:      200
 INTERPOLATION TYPE:            DIIS
 INTERPOLATION STEPS:              2 (START)      1 (STEP)
 LEVEL SHIFTS:                 -0.30 (CLOSED)  0.00 (OPEN) 



 Orbital guess generated from atomic densities. Full valence occupancy:   32

 Molecular orbital dump at record        2100.2

 ITERATION    DDIFF          GRAD             ENERGY        2-EL.EN.            DIPOLE MOMENTS         DIIS
    1      0.000D+00      0.000D+00      -267.17821441    555.797341    0.57046    0.05116   -0.74919    0
    2      0.000D+00      0.617D-02      -267.24890590    555.722168    0.41436   -0.13078   -0.59878    1
    3      0.927D-02      0.214D-02      -267.26108026    555.639527    0.39406   -0.05905   -0.62617    2
    4      0.336D-02      0.912D-03      -267.26468675    555.791898    0.37947   -0.09940   -0.64255    3
    5      0.186D-02      0.363D-03      -267.26525536    555.763353    0.38204   -0.09298   -0.63552    4
    6      0.792D-03      0.110D-03      -267.26533169    555.749561    0.38031   -0.09280   -0.63826    5
    7      0.277D-03      0.511D-04      -267.26535183    555.746554    0.37962   -0.09256   -0.63774    6
    8      0.144D-03      0.273D-04      -267.26535790    555.744605    0.37990   -0.09267   -0.63795    7
    9      0.925D-04      0.115D-04      -267.26535882    555.744915    0.38009   -0.09263   -0.63771    8
   10      0.366D-04      0.501D-05      -267.26535897    555.745530    0.38035   -0.09264   -0.63777    9
   11      0.147D-04      0.196D-05      -267.26535900    555.745372    0.38040   -0.09264   -0.63778    9
   12      0.650D-05      0.670D-06      -267.26535900    555.745506    0.38042   -0.09264   -0.63777    9
   13      0.227D-05      0.226D-06      -267.26535900    555.745422    0.38042   -0.09264   -0.63777    9
   14      0.632D-06      0.758D-07      -267.26535900    555.745431    0.38042   -0.09264   -0.63777    9
   15      0.193D-06      0.301D-07      -267.26535900    555.745427    0.38042   -0.09264   -0.63777    9
   16      0.825D-07      0.145D-07      -267.26535900    555.745428    0.38042   -0.09264   -0.63777    9
   17      0.375D-07      0.753D-08      -267.26535900    555.745428    0.38042   -0.09264   -0.63777    9
   18      0.223D-07      0.342D-08      -267.26535900    555.745428    0.38042   -0.09264   -0.63777    9
   19      0.115D-07      0.133D-08      -267.26535900    555.745428    0.38042   -0.09264   -0.63777    9
   20      0.443D-08      0.567D-09      -267.26535900    555.745428    0.38042   -0.09264   -0.63777    9
   21      0.166D-08      0.287D-09      -267.26535900    555.745428    0.38042   -0.09264   -0.63777    9
   22      0.756D-09      0.162D-09      -267.26535900    555.745428    0.38042   -0.09264   -0.63777    9
   23      0.448D-09      0.797D-10      -267.26535900    555.745428    0.38042   -0.09264   -0.63777    9
   24      0.264D-09      0.317D-10      -267.26535900    555.745428    0.38042   -0.09264   -0.63777    9
   25      0.933D-10      0.129D-10      -267.26535900    555.745428    0.38042   -0.09264   -0.63777    0

 Final alpha occupancy:  21
 Final beta  occupancy:  20

 !RHF STATE 1.1 Energy               -267.265359003780
 Nuclear energy                       183.21295341
 One-electron energy                 -728.35102659
 Two-electron energy                  277.87271418
 Virial quotient                       -1.00155882
 !RHF STATE 1.1 Dipole moment           0.38042132    -0.09264052    -0.63777199
 Dipole moment /Debye                   0.96687121    -0.23545330    -1.62094853

 Orbital energies:

         1.1          2.1          3.1          4.1          5.1          6.1          7.1          8.1          9.1         10.1
    -20.630467   -20.628876   -11.279277   -11.237912   -11.232147    -1.470136    -1.240600    -1.023159    -0.945344    -0.768369

        11.1         12.1         13.1         14.1         15.1         16.1         17.1         18.1         19.1         20.1
     -0.704544    -0.642939    -0.626723    -0.588803    -0.545225    -0.543482    -0.538983    -0.516880    -0.493013    -0.469760

        21.1         22.1         23.1
     -0.352320     0.181249     0.183560


 **********************************************************************************************************************************
 DATASETS  * FILE   NREC   LENGTH (MB)   RECORD NAMES
              1      18        3.17       500      610      700      900      950      970     1000      129      960     1100   
                                          VAR    BASINP    GEOM    SYMINP    ZMAT    AOBASIS   BASIS     P2S    ABASIS      S 
                                         1400     1410     1200     1210     1080     1600     1650     1700   
                                           T        V       H0       H01     AOSYM     SMH    MOLCAS    OPER   

              2       3        0.77       700     1000     2100   
                                         GEOM     BASIS     RHF  

 PROGRAMS   *        TOTAL       RHF       INT
 CPU TIMES  *         2.48      1.38      1.06
 REAL TIME  *         3.02 SEC
 DISK USED  *       334.90 MB      
 SF USED    *         0.04 MB      
 GA USED    *         0.00 MB       (max)       0.00 MB       (current)
 **********************************************************************************************************************************


1PROGRAM * CCSD (Unrestricted open-shell coupled cluster)     Authors: C. Hampel, H.-J. Werner, 1991, M. Deegan, P.J. Knowles, 1992


 Convergence thresholds:  THRVAR = 1.00D-08  THRDEN = 1.00D-10

 CCSD(T)     terms to be evaluated (factor= 1.000)


 Number of core orbitals:           5 (   5 )
 Number of closed-shell orbitals:  15 (  15 )
 Number of active  orbitals:        1 (   1 )
 Number of external orbitals:      84 (  84 )

 Memory could be reduced to 24.91 Mwords without degradation in triples

 Number of N-1 electron functions:              31
 Number of N-2 electron functions:             465
 Number of singly external CSFs:              2635
 Number of doubly external CSFs:           2537250
 Total number of CSFs:                     2539885

 Molecular orbitals read from record     2100.2  Type=RHF/CANONICAL (state 1.1)

 Integral transformation finished. Total CPU:   0.92 sec, npass=  1  Memory used:  12.63 MW

 Starting RMP2 calculation

 ITER.      SQ.NORM     CORR.ENERGY   TOTAL ENERGY   ENERGY CHANGE        DEN1      VAR(S)    VAR(P)  DIIS     TIME
   1      1.24305592    -0.78640631  -268.05176531    -0.78640631    -0.00305034  0.20D-04  0.11D-02  1  1     1.25
   2      1.24569792    -0.78969591  -268.05505492    -0.00328960    -0.00000474  0.54D-06  0.19D-05  2  2     1.52
   3      1.24576347    -0.78973798  -268.05509698    -0.00004206    -0.00000003  0.16D-07  0.68D-08  3  3     1.81
   4      1.24576443    -0.78973798  -268.05509698    -0.00000000    -0.00000000  0.27D-09  0.38D-10  4  4     2.13
   5      1.24576451    -0.78973801  -268.05509702    -0.00000003    -0.00000000  0.25D-11  0.65D-12  5  5     2.47
   6      1.24576452    -0.78973802  -268.05509702    -0.00000001    -0.00000000  0.28D-13  0.87D-14  6  6     2.82
   7      1.24576452    -0.78973802  -268.05509702     0.00000000    -0.00000000  0.47D-15  0.12D-15  6  1     3.19
   8      1.24576452    -0.78973802  -268.05509702     0.00000000    -0.00000000  0.60D-17  0.13D-17  6  2     3.55

 Norm of t1 vector:      0.03892485      S-energy:    -0.00227076      T1 diagnostic:  0.00055022
 Norm of t2 vector:      0.49421592      P-energy:    -0.78746726
                                         Alpha-Beta:  -0.59344214
                                         Alpha-Alpha: -0.10094331
                                         Beta-Beta:   -0.09308181

 Spin contamination <S**2-Sz**2-Sz>     0.00104006
  Reference energy                   -267.265359003782
  RHF-RMP2 correlation energy          -0.789738017757
 !RHF-RMP2 energy                    -268.055097021539

 Starting UCCSD calculation

 ITER.      SQ.NORM     CORR.ENERGY   TOTAL ENERGY   ENERGY CHANGE        DEN1      VAR(S)    VAR(P)  DIIS     TIME
   1      1.26282692    -0.80907059  -268.07442960    -0.80907059    -0.02516057  0.38D-02  0.59D-02  1  1     9.68
   2      1.29160658    -0.83648387  -268.10184288    -0.02741328    -0.00201183  0.22D-03  0.66D-03  2  2    15.34
   3      1.30155005    -0.84098322  -268.10634223    -0.00449935    -0.00032468  0.19D-03  0.56D-04  3  3    21.03
   4      1.30646377    -0.84246074  -268.10781974    -0.00147752    -0.00007207  0.43D-04  0.14D-04  4  4    26.74
   5      1.30919227    -0.84284872  -268.10820772    -0.00038798    -0.00002366  0.19D-04  0.32D-05  5  5    32.80
   6      1.31113012    -0.84305310  -268.10841211    -0.00020438    -0.00000645  0.42D-05  0.12D-05  6  6    38.70
   7      1.31207880    -0.84311185  -268.10847085    -0.00005874    -0.00000208  0.14D-05  0.37D-06  6  2    44.44
   8      1.31252009    -0.84315452  -268.10851353    -0.00004267    -0.00000065  0.45D-06  0.11D-06  6  1    50.19
   9      1.31270501    -0.84315910  -268.10851810    -0.00000457    -0.00000022  0.15D-06  0.35D-07  6  4    55.95
  10      1.31276812    -0.84316203  -268.10852103    -0.00000293    -0.00000005  0.35D-07  0.95D-08  6  3    61.70
  11      1.31279759    -0.84316076  -268.10851977     0.00000126    -0.00000002  0.13D-07  0.28D-08  6  5    67.45
  12      1.31280795    -0.84316050  -268.10851951     0.00000026    -0.00000000  0.26D-08  0.95D-09  6  6    73.23
  13      1.31280680    -0.84315959  -268.10851859     0.00000092    -0.00000000  0.96D-09  0.28D-09  6  2    78.98
  14      1.31280159    -0.84315874  -268.10851775     0.00000084    -0.00000000  0.21D-09  0.67D-10  6  1    84.73
  15      1.31279752    -0.84315816  -268.10851716     0.00000059    -0.00000000  0.78D-10  0.19D-10  6  4    90.48
  16      1.31279434    -0.84315777  -268.10851678     0.00000038    -0.00000000  0.28D-10  0.63D-11  6  3    96.23
  17      1.31279214    -0.84315753  -268.10851654     0.00000024    -0.00000000  0.10D-10  0.24D-11  6  5   101.99
  18      1.31279124    -0.84315747  -268.10851648     0.00000006    -0.00000000  0.41D-11  0.87D-12  6  6   107.73
  19      1.31279063    -0.84315744  -268.10851644     0.00000003    -0.00000000  0.16D-11  0.37D-12  6  2   113.77
  20      1.31279031    -0.84315743  -268.10851643     0.00000001    -0.00000000  0.60D-12  0.13D-12  6  1   119.65
  21      1.31279015    -0.84315742  -268.10851642     0.00000001    -0.00000000  0.28D-12  0.58D-13  6  4   125.41
  22      1.31279003    -0.84315741  -268.10851641     0.00000001    -0.00000000  0.73D-13  0.21D-13  6  3   131.17
  23      1.31278997    -0.84315741  -268.10851641     0.00000000    -0.00000000  0.21D-13  0.62D-14  6  5   136.92
  24      1.31278996    -0.84315741  -268.10851641    -0.00000000    -0.00000000  0.67D-14  0.22D-14  6  6   142.12
  25      1.31278997    -0.84315741  -268.10851641    -0.00000000    -0.00000000  0.21D-14  0.52D-15  6  2   146.94
  26      1.31278997    -0.84315741  -268.10851641    -0.00000000    -0.00000000  0.77D-15  0.15D-15  6  1   151.79
  27      1.31278998    -0.84315741  -268.10851641    -0.00000000    -0.00000000  0.20D-15  0.62D-16  6  3   156.62
  28      1.31278999    -0.84315741  -268.10851641    -0.00000000    -0.00000000  0.30D-16  0.11D-16  6  4   161.43
  29      1.31278999    -0.84315741  -268.10851641    -0.00000000    -0.00000000  0.70D-17  0.29D-17  6  5   166.27
  30      1.31278999    -0.84315741  -268.10851641    -0.00000000    -0.00000000  0.15D-17  0.54D-18  6  6   171.11
  31      1.31278999    -0.84315741  -268.10851641    -0.00000000    -0.00000000  0.35D-18  0.10D-18  6  2   175.95

 Norm of t1 vector:      0.13870421      S-energy:    -0.00282009      T1 diagnostic:  0.01616823
                                                                       D1 diagnostic:  0.06281717
 Norm of t2 vector:      0.54180359      P-energy:    -0.84033733
                                         Alpha-Beta:  -0.66489374
                                         Alpha-Alpha: -0.09147344
                                         Beta-Beta:   -0.08397014

 Spin contamination <S**2-Sz**2-Sz>     0.00216950

 Memory could be reduced to 28.85 Mwords without degradation in triples
 

 RESULTS
 =======

  Reference energy                   -267.265359003782
  UCCSD singles energy                 -0.002820086016
  UCCSD pair energy                    -0.840337325081
  UCCSD correlation energy             -0.843157411097
  Triples (T) contribution             -0.024979788784
  Total correlation energy             -0.868137199881
 
  RHF-UCCSD energy                   -268.108516414879
  RHF-UCCSD[T] energy                -268.134832501409
  RHF-UCCSD-T energy                 -268.133074433057
 !RHF-UCCSD(T) energy                -268.133496203663

 Program statistics:

 Available memory in ccsd:               999997692
 Min. memory needed in ccsd:               7337057
 Max. memory used in ccsd:                10523002
 Max. memory used in cckext:              10867977 (31 integral passes)
 Max. memory used in cckint:              12633073 ( 1 integral passes)



 **********************************************************************************************************************************
 DATASETS  * FILE   NREC   LENGTH (MB)   RECORD NAMES
              1      18        3.17       500      610      700      900      950      970     1000      129      960     1100   
                                          VAR    BASINP    GEOM    SYMINP    ZMAT    AOBASIS   BASIS     P2S    ABASIS      S 
                                         1400     1410     1200     1210     1080     1600     1650     1700   
                                           T        V       H0       H01     AOSYM     SMH    MOLCAS    OPER   

              2       3        0.77       700     1000     2100   
                                         GEOM     BASIS     RHF  

 PROGRAMS   *        TOTAL  UCCSD(T)       RHF       INT
 CPU TIMES  *       215.55    213.07      1.38      1.06
 REAL TIME  *       224.90 SEC
 DISK USED  *         1.30 GB      
 SF USED    *       553.73 MB      
 GA USED    *         0.00 MB       (max)       0.00 MB       (current)
 **********************************************************************************************************************************

        UCCSD(T)        RHF-SCF 
   -268.13349620   -267.26535900
 **********************************************************************************************************************************
 Variable memory released
